# vtk DataFile Version 2.0
VTK from Matlab
ASCII
DATASET UNSTRUCTURED_GRID
POINTS 4498 float
162.0000 100.0000 0.0000 
162.0000 19.0000 0.0000 
188.0000 19.0000 0.0000 
188.0000 100.0000 0.0000 
30.0000 100.0000 0.0000 
30.0000 19.0000 0.0000 
162.0000 0.0000 0.0000 
188.0000 0.0000 0.0000 
30.0000 0.0000 0.0000 
0.0000 100.0000 0.0000 
0.0000 19.0000 0.0000 
0.0000 0.0000 0.0000 
162.0000 94.9375 0.0000 
162.0000 89.8750 0.0000 
162.0000 84.8125 0.0000 
162.0000 79.7500 0.0000 
162.0000 74.6875 0.0000 
162.0000 69.6250 0.0000 
162.0000 64.5625 0.0000 
162.0000 59.5000 0.0000 
162.0000 54.4375 0.0000 
162.0000 49.3750 0.0000 
162.0000 44.3125 0.0000 
162.0000 39.2500 0.0000 
162.0000 34.1875 0.0000 
162.0000 29.1250 0.0000 
162.0000 24.0625 0.0000 
167.2000 19.0000 0.0000 
172.4000 19.0000 0.0000 
177.6000 19.0000 0.0000 
182.8000 19.0000 0.0000 
188.0000 24.0625 0.0000 
188.0000 29.1250 0.0000 
188.0000 34.1875 0.0000 
188.0000 39.2500 0.0000 
188.0000 44.3125 0.0000 
188.0000 49.3750 0.0000 
188.0000 54.4375 0.0000 
188.0000 59.5000 0.0000 
188.0000 64.5625 0.0000 
188.0000 69.6250 0.0000 
188.0000 74.6875 0.0000 
188.0000 79.7500 0.0000 
188.0000 84.8125 0.0000 
188.0000 89.8750 0.0000 
188.0000 94.9375 0.0000 
182.8000 100.0000 0.0000 
177.6000 100.0000 0.0000 
172.4000 100.0000 0.0000 
167.2000 100.0000 0.0000 
30.0000 94.9375 0.0000 
30.0000 89.8750 0.0000 
30.0000 84.8125 0.0000 
30.0000 79.7500 0.0000 
30.0000 74.6875 0.0000 
30.0000 69.6250 0.0000 
30.0000 64.5625 0.0000 
30.0000 59.5000 0.0000 
30.0000 54.4375 0.0000 
30.0000 49.3750 0.0000 
30.0000 44.3125 0.0000 
30.0000 39.2500 0.0000 
30.0000 34.1875 0.0000 
30.0000 29.1250 0.0000 
30.0000 24.0625 0.0000 
35.2800 19.0000 0.0000 
40.5600 19.0000 0.0000 
45.8400 19.0000 0.0000 
51.1200 19.0000 0.0000 
56.4000 19.0000 0.0000 
61.6800 19.0000 0.0000 
66.9600 19.0000 0.0000 
72.2400 19.0000 0.0000 
77.5200 19.0000 0.0000 
82.8000 19.0000 0.0000 
88.0800 19.0000 0.0000 
93.3600 19.0000 0.0000 
98.6400 19.0000 0.0000 
103.9200 19.0000 0.0000 
109.2000 19.0000 0.0000 
114.4800 19.0000 0.0000 
119.7600 19.0000 0.0000 
125.0400 19.0000 0.0000 
130.3200 19.0000 0.0000 
135.6000 19.0000 0.0000 
140.8800 19.0000 0.0000 
146.1600 19.0000 0.0000 
151.4400 19.0000 0.0000 
156.7200 19.0000 0.0000 
156.7200 100.0000 0.0000 
151.4400 100.0000 0.0000 
146.1600 100.0000 0.0000 
140.8800 100.0000 0.0000 
135.6000 100.0000 0.0000 
130.3200 100.0000 0.0000 
125.0400 100.0000 0.0000 
119.7600 100.0000 0.0000 
114.4800 100.0000 0.0000 
109.2000 100.0000 0.0000 
103.9200 100.0000 0.0000 
98.6400 100.0000 0.0000 
93.3600 100.0000 0.0000 
88.0800 100.0000 0.0000 
82.8000 100.0000 0.0000 
77.5200 100.0000 0.0000 
72.2400 100.0000 0.0000 
66.9600 100.0000 0.0000 
61.6800 100.0000 0.0000 
56.4000 100.0000 0.0000 
51.1200 100.0000 0.0000 
45.8400 100.0000 0.0000 
40.5600 100.0000 0.0000 
35.2800 100.0000 0.0000 
162.0000 15.2000 0.0000 
162.0000 11.4000 0.0000 
162.0000 7.6000 0.0000 
162.0000 3.8000 0.0000 
167.2000 0.0000 0.0000 
172.4000 0.0000 0.0000 
177.6000 0.0000 0.0000 
182.8000 0.0000 0.0000 
188.0000 3.8000 0.0000 
188.0000 7.6000 0.0000 
188.0000 11.4000 0.0000 
188.0000 15.2000 0.0000 
30.0000 15.2000 0.0000 
30.0000 11.4000 0.0000 
30.0000 7.6000 0.0000 
30.0000 3.8000 0.0000 
35.2800 0.0000 0.0000 
40.5600 0.0000 0.0000 
45.8400 0.0000 0.0000 
51.1200 0.0000 0.0000 
56.4000 0.0000 0.0000 
61.6800 0.0000 0.0000 
66.9600 0.0000 0.0000 
72.2400 0.0000 0.0000 
77.5200 0.0000 0.0000 
82.8000 0.0000 0.0000 
88.0800 0.0000 0.0000 
93.3600 0.0000 0.0000 
98.6400 0.0000 0.0000 
103.9200 0.0000 0.0000 
109.2000 0.0000 0.0000 
114.4800 0.0000 0.0000 
119.7600 0.0000 0.0000 
125.0400 0.0000 0.0000 
130.3200 0.0000 0.0000 
135.6000 0.0000 0.0000 
140.8800 0.0000 0.0000 
146.1600 0.0000 0.0000 
151.4400 0.0000 0.0000 
156.7200 0.0000 0.0000 
27.7962 100.0000 0.0000 
25.7161 100.0000 0.0000 
23.7527 100.0000 0.0000 
21.8996 100.0000 0.0000 
20.1504 100.0000 0.0000 
18.4994 100.0000 0.0000 
16.9411 100.0000 0.0000 
15.4703 100.0000 0.0000 
14.0819 100.0000 0.0000 
12.7716 100.0000 0.0000 
11.5347 100.0000 0.0000 
10.3673 100.0000 0.0000 
9.2654 100.0000 0.0000 
8.2253 100.0000 0.0000 
7.2437 100.0000 0.0000 
6.3171 100.0000 0.0000 
5.4425 100.0000 0.0000 
4.6170 100.0000 0.0000 
3.8379 100.0000 0.0000 
3.1024 100.0000 0.0000 
2.4083 100.0000 0.0000 
1.7531 100.0000 0.0000 
1.1347 100.0000 0.0000 
0.5509 100.0000 0.0000 
0.0000 98.9875 0.0000 
0.0000 97.9750 0.0000 
0.0000 96.9625 0.0000 
0.0000 95.9500 0.0000 
0.0000 94.9375 0.0000 
0.0000 93.9250 0.0000 
0.0000 92.9125 0.0000 
0.0000 91.9000 0.0000 
0.0000 90.8875 0.0000 
0.0000 89.8750 0.0000 
0.0000 88.8625 0.0000 
0.0000 87.8500 0.0000 
0.0000 86.8375 0.0000 
0.0000 85.8250 0.0000 
0.0000 84.8125 0.0000 
0.0000 83.8000 0.0000 
0.0000 82.7875 0.0000 
0.0000 81.7750 0.0000 
0.0000 80.7625 0.0000 
0.0000 79.7500 0.0000 
0.0000 78.7375 0.0000 
0.0000 77.7250 0.0000 
0.0000 76.7125 0.0000 
0.0000 75.7000 0.0000 
0.0000 74.6875 0.0000 
0.0000 73.6750 0.0000 
0.0000 72.6625 0.0000 
0.0000 71.6500 0.0000 
0.0000 70.6375 0.0000 
0.0000 69.6250 0.0000 
0.0000 68.6125 0.0000 
0.0000 67.6000 0.0000 
0.0000 66.5875 0.0000 
0.0000 65.5750 0.0000 
0.0000 64.5625 0.0000 
0.0000 63.5500 0.0000 
0.0000 62.5375 0.0000 
0.0000 61.5250 0.0000 
0.0000 60.5125 0.0000 
0.0000 59.5000 0.0000 
0.0000 58.4875 0.0000 
0.0000 57.4750 0.0000 
0.0000 56.4625 0.0000 
0.0000 55.4500 0.0000 
0.0000 54.4375 0.0000 
0.0000 53.4250 0.0000 
0.0000 52.4125 0.0000 
0.0000 51.4000 0.0000 
0.0000 50.3875 0.0000 
0.0000 49.3750 0.0000 
0.0000 48.3625 0.0000 
0.0000 47.3500 0.0000 
0.0000 46.3375 0.0000 
0.0000 45.3250 0.0000 
0.0000 44.3125 0.0000 
0.0000 43.3000 0.0000 
0.0000 42.2875 0.0000 
0.0000 41.2750 0.0000 
0.0000 40.2625 0.0000 
0.0000 39.2500 0.0000 
0.0000 38.2375 0.0000 
0.0000 37.2250 0.0000 
0.0000 36.2125 0.0000 
0.0000 35.2000 0.0000 
0.0000 34.1875 0.0000 
0.0000 33.1750 0.0000 
0.0000 32.1625 0.0000 
0.0000 31.1500 0.0000 
0.0000 30.1375 0.0000 
0.0000 29.1250 0.0000 
0.0000 28.1125 0.0000 
0.0000 27.1000 0.0000 
0.0000 26.0875 0.0000 
0.0000 25.0750 0.0000 
0.0000 24.0625 0.0000 
0.0000 23.0500 0.0000 
0.0000 22.0375 0.0000 
0.0000 21.0250 0.0000 
0.0000 20.0125 0.0000 
0.5509 19.0000 0.0000 
1.1347 19.0000 0.0000 
1.7531 19.0000 0.0000 
2.4083 19.0000 0.0000 
3.1024 19.0000 0.0000 
3.8379 19.0000 0.0000 
4.6170 19.0000 0.0000 
5.4425 19.0000 0.0000 
6.3171 19.0000 0.0000 
7.2437 19.0000 0.0000 
8.2253 19.0000 0.0000 
9.2654 19.0000 0.0000 
10.3673 19.0000 0.0000 
11.5347 19.0000 0.0000 
12.7716 19.0000 0.0000 
14.0819 19.0000 0.0000 
15.4703 19.0000 0.0000 
16.9411 19.0000 0.0000 
18.4994 19.0000 0.0000 
20.1504 19.0000 0.0000 
21.8996 19.0000 0.0000 
23.7527 19.0000 0.0000 
25.7161 19.0000 0.0000 
27.7962 19.0000 0.0000 
0.0000 18.0952 0.0000 
0.0000 17.1905 0.0000 
0.0000 16.2857 0.0000 
0.0000 15.3810 0.0000 
0.0000 14.4762 0.0000 
0.0000 13.5714 0.0000 
0.0000 12.6667 0.0000 
0.0000 11.7619 0.0000 
0.0000 10.8571 0.0000 
0.0000 9.9524 0.0000 
0.0000 9.0476 0.0000 
0.0000 8.1429 0.0000 
0.0000 7.2381 0.0000 
0.0000 6.3333 0.0000 
0.0000 5.4286 0.0000 
0.0000 4.5238 0.0000 
0.0000 3.6190 0.0000 
0.0000 2.7143 0.0000 
0.0000 1.8095 0.0000 
0.0000 0.9048 0.0000 
0.5509 0.0000 0.0000 
1.1347 0.0000 0.0000 
1.7531 0.0000 0.0000 
2.4083 0.0000 0.0000 
3.1024 0.0000 0.0000 
3.8379 0.0000 0.0000 
4.6170 0.0000 0.0000 
5.4425 0.0000 0.0000 
6.3171 0.0000 0.0000 
7.2437 0.0000 0.0000 
8.2253 0.0000 0.0000 
9.2654 0.0000 0.0000 
10.3673 0.0000 0.0000 
11.5347 0.0000 0.0000 
12.7716 0.0000 0.0000 
14.0819 0.0000 0.0000 
15.4703 0.0000 0.0000 
16.9411 0.0000 0.0000 
18.4994 0.0000 0.0000 
20.1504 0.0000 0.0000 
21.8996 0.0000 0.0000 
23.7527 0.0000 0.0000 
25.7161 0.0000 0.0000 
27.7962 0.0000 0.0000 
167.2000 94.9375 0.0000 
167.2000 89.8750 0.0000 
167.2000 84.8125 0.0000 
167.2000 79.7500 0.0000 
167.2000 74.6875 0.0000 
167.2000 69.6250 0.0000 
167.2000 64.5625 0.0000 
167.2000 59.5000 0.0000 
167.2000 54.4375 0.0000 
167.2000 49.3750 0.0000 
167.2000 44.3125 0.0000 
167.2000 39.2500 0.0000 
167.2000 34.1875 0.0000 
167.2000 29.1250 0.0000 
167.2000 24.0625 0.0000 
172.4000 94.9375 0.0000 
172.4000 89.8750 0.0000 
172.4000 84.8125 0.0000 
172.4000 79.7500 0.0000 
172.4000 74.6875 0.0000 
172.4000 69.6250 0.0000 
172.4000 64.5625 0.0000 
172.4000 59.5000 0.0000 
172.4000 54.4375 0.0000 
172.4000 49.3750 0.0000 
172.4000 44.3125 0.0000 
172.4000 39.2500 0.0000 
172.4000 34.1875 0.0000 
172.4000 29.1250 0.0000 
172.4000 24.0625 0.0000 
177.6000 94.9375 0.0000 
177.6000 89.8750 0.0000 
177.6000 84.8125 0.0000 
177.6000 79.7500 0.0000 
177.6000 74.6875 0.0000 
177.6000 69.6250 0.0000 
177.6000 64.5625 0.0000 
177.6000 59.5000 0.0000 
177.6000 54.4375 0.0000 
177.6000 49.3750 0.0000 
177.6000 44.3125 0.0000 
177.6000 39.2500 0.0000 
177.6000 34.1875 0.0000 
177.6000 29.1250 0.0000 
177.6000 24.0625 0.0000 
182.8000 94.9375 0.0000 
182.8000 89.8750 0.0000 
182.8000 84.8125 0.0000 
182.8000 79.7500 0.0000 
182.8000 74.6875 0.0000 
182.8000 69.6250 0.0000 
182.8000 64.5625 0.0000 
182.8000 59.5000 0.0000 
182.8000 54.4375 0.0000 
182.8000 49.3750 0.0000 
182.8000 44.3125 0.0000 
182.8000 39.2500 0.0000 
182.8000 34.1875 0.0000 
182.8000 29.1250 0.0000 
182.8000 24.0625 0.0000 
35.2800 94.9375 0.0000 
35.2800 89.8750 0.0000 
35.2800 84.8125 0.0000 
35.2800 79.7500 0.0000 
35.2800 74.6875 0.0000 
35.2800 69.6250 0.0000 
35.2800 64.5625 0.0000 
35.2800 59.5000 0.0000 
35.2800 54.4375 0.0000 
35.2800 49.3750 0.0000 
35.2800 44.3125 0.0000 
35.2800 39.2500 0.0000 
35.2800 34.1875 0.0000 
35.2800 29.1250 0.0000 
35.2800 24.0625 0.0000 
40.5600 94.9375 0.0000 
40.5600 89.8750 0.0000 
40.5600 84.8125 0.0000 
40.5600 79.7500 0.0000 
40.5600 74.6875 0.0000 
40.5600 69.6250 0.0000 
40.5600 64.5625 0.0000 
40.5600 59.5000 0.0000 
40.5600 54.4375 0.0000 
40.5600 49.3750 0.0000 
40.5600 44.3125 0.0000 
40.5600 39.2500 0.0000 
40.5600 34.1875 0.0000 
40.5600 29.1250 0.0000 
[...]
POINT_DATA 4498
VECTORS u float
-0.1714 -0.0052 -0.0000 
-0.0328 -0.0036 -0.0000 
-0.0323 0.0406 -0.0000 
-0.1714 0.0398 -0.0000 
-0.1572 -0.2296 -0.0000 
-0.0387 -0.2269 -0.0000 
0.0000 0.0000 0.0000 
-0.0003 0.0405 -0.0000 
-0.0078 -0.2267 -0.0000 
-0.1337 -0.2725 -0.0000 
-0.0395 -0.2756 -0.0000 
-0.0078 -0.2754 -0.0000 
-0.1626 -0.0052 -0.0000 
-0.1539 -0.0052 -0.0000 
-0.1452 -0.0052 -0.0000 
-0.1365 -0.0052 -0.0000 
-0.1278 -0.0051 -0.0000 
-0.1192 -0.0051 -0.0000 
-0.1106 -0.0051 -0.0000 
-0.1019 -0.0050 -0.0000 
-0.0933 -0.0049 -0.0000 
-0.0847 -0.0048 -0.0000 
-0.0761 -0.0047 -0.0000 
-0.0675 -0.0046 -0.0000 
-0.0588 -0.0044 -0.0000 
-0.0502 -0.0042 -0.0000 
-0.0415 -0.0039 -0.0000 
-0.0326 0.0054 -0.0000 
-0.0325 0.0142 -0.0000 
-0.0324 0.0229 -0.0000 
-0.0324 0.0317 -0.0000 
-0.0410 0.0405 -0.0000 
-0.0497 0.0405 -0.0000 
-0.0584 0.0404 -0.0000 
-0.0671 0.0403 -0.0000 
-0.0758 0.0402 -0.0000 
-0.0845 0.0401 -0.0000 
-0.0932 0.0400 -0.0000 
-0.1018 0.0399 -0.0000 
-0.1105 0.0398 -0.0000 
-0.1192 0.0398 -0.0000 
-0.1278 0.0398 -0.0000 
-0.1365 0.0398 -0.0000 
-0.1452 0.0398 -0.0000 
-0.1540 0.0398 -0.0000 
-0.1627 0.0398 -0.0000 
-0.1714 0.0308 -0.0000 
-0.1714 0.0218 -0.0000 
-0.1714 0.0129 -0.0000 
-0.1714 0.0039 -0.0000 
-0.1499 -0.2302 -0.0000 
-0.1432 -0.2307 -0.0000 
-0.1369 -0.2308 -0.0000 
-0.1307 -0.2308 -0.0000 
-0.1244 -0.2305 -0.0000 
-0.1178 -0.2301 -0.0000 
-0.1109 -0.2296 -0.0000 
-0.1037 -0.2291 -0.0000 
-0.0962 -0.2286 -0.0000 
-0.0884 -0.2282 -0.0000 
-0.0804 -0.2279 -0.0000 
-0.0722 -0.2276 -0.0000 
-0.0639 -0.2274 -0.0000 
-0.0555 -0.2272 -0.0000 
-0.0471 -0.2270 -0.0000 
-0.0384 -0.2186 -0.0000 
-0.0381 -0.2104 -0.0000 
-0.0378 -0.2020 -0.0000 
-0.0375 -0.1937 -0.0000 
-0.0371 -0.1852 -0.0000 
-0.0368 -0.1767 -0.0000 
-0.0364 -0.1682 -0.0000 
-0.0361 -0.1595 -0.0000 
-0.0358 -0.1508 -0.0000 
-0.0355 -0.1420 -0.0000 
-0.0352 -0.1331 -0.0000 
-0.0349 -0.1242 -0.0000 
-0.0347 -0.1152 -0.0000 
-0.0344 -0.1061 -0.0000 
-0.0342 -0.0970 -0.0000 
-0.0340 -0.0879 -0.0000 
-0.0339 -0.0787 -0.0000 
-0.0337 -0.0694 -0.0000 
-0.0336 -0.0601 -0.0000 
-0.0335 -0.0507 -0.0000 
-0.0334 -0.0413 -0.0000 
-0.0333 -0.0319 -0.0000 
-0.0332 -0.0224 -0.0000 
-0.0330 -0.0129 -0.0000 
-0.1714 -0.0143 -0.0000 
-0.1713 -0.0235 -0.0000 
-0.1713 -0.0327 -0.0000 
-0.1712 -0.0419 -0.0000 
-0.1711 -0.0511 -0.0000 
-0.1709 -0.0603 -0.0000 
-0.1707 -0.0695 -0.0000 
-0.1705 -0.0787 -0.0000 
-0.1703 -0.0878 -0.0000 
-0.1700 -0.0970 -0.0000 
-0.1697 -0.1061 -0.0000 
-0.1693 -0.1152 -0.0000 
-0.1689 -0.1243 -0.0000 
-0.1685 -0.1334 -0.0000 
-0.1680 -0.1424 -0.0000 
-0.1674 -0.1514 -0.0000 
-0.1668 -0.1603 -0.0000 
-0.1661 -0.1693 -0.0000 
-0.1653 -0.1781 -0.0000 
-0.1644 -0.1870 -0.0000 
-0.1634 -0.1957 -0.0000 
-0.1622 -0.2044 -0.0000 
-0.1609 -0.2130 -0.0000 
-0.1592 -0.2214 -0.0000 
-0.0263 -0.0033 -0.0000 
-0.0197 -0.0029 -0.0000 
-0.0132 -0.0024 -0.0000 
-0.0066 -0.0015 -0.0000 
-0.0005 0.0062 -0.0000 
-0.0004 0.0146 -0.0000 
-0.0003 0.0231 -0.0000 
-0.0003 0.0318 -0.0000 
-0.0067 0.0405 -0.0000 
-0.0130 0.0405 -0.0000 
-0.0194 0.0406 -0.0000 
-0.0259 0.0406 -0.0000 
-0.0325 -0.2269 -0.0000 
-0.0262 -0.2268 -0.0000 
-0.0200 -0.2268 -0.0000 
-0.0138 -0.2267 -0.0000 
-0.0076 -0.2183 -0.0000 
-0.0074 -0.2099 -0.0000 
-0.0070 -0.2016 -0.0000 
-0.0067 -0.1932 -0.0000 
-0.0063 -0.1847 -0.0000 
-0.0058 -0.1762 -0.0000 
-0.0054 -0.1676 -0.0000 
-0.0049 -0.1590 -0.0000 
-0.0044 -0.1503 -0.0000 
-0.0039 -0.1415 -0.0000 
-0.0035 -0.1327 -0.0000 
-0.0030 -0.1238 -0.0000 
-0.0026 -0.1148 -0.0000 
-0.0022 -0.1058 -0.0000 
-0.0018 -0.0967 -0.0000 
-0.0015 -0.0875 -0.0000 
-0.0011 -0.0784 -0.0000 
-0.0008 -0.0691 -0.0000 
-0.0006 -0.0599 -0.0000 
-0.0003 -0.0505 -0.0000 
-0.0001 -0.0411 -0.0000 
0.0001 -0.0316 0.0000 
0.0003 -0.0219 0.0000 
0.0005 -0.0120 0.0000 
-0.1563 -0.2329 -0.0000 
-0.1553 -0.2360 -0.0000 
-0.1543 -0.2388 -0.0000 
-0.1534 -0.2415 -0.0000 
-0.1523 -0.2439 -0.0000 
-0.1513 -0.2462 -0.0000 
-0.1503 -0.2482 -0.0000 
-0.1493 -0.2501 -0.0000 
-0.1482 -0.2518 -0.0000 
-0.1472 -0.2533 -0.0000 
-0.1462 -0.2547 -0.0000 
-0.1452 -0.2560 -0.0000 
-0.1442 -0.2572 -0.0000 
-0.1433 -0.2582 -0.0000 
-0.1424 -0.2592 -0.0000 
-0.1415 -0.2601 -0.0000 
-0.1406 -0.2609 -0.0000 
-0.1398 -0.2617 -0.0000 
-0.1390 -0.2625 -0.0000 
-0.1383 -0.2632 -0.0000 
-0.1375 -0.2641 -0.0000 
-0.1368 -0.2650 -0.0000 
-0.1361 -0.2662 -0.0000 
-0.1351 -0.2679 -0.0000 
-0.1337 -0.2683 -0.0000 
-0.1337 -0.2670 -0.0000 
-0.1337 -0.2664 -0.0000 
-0.1337 -0.2660 -0.0000 
-0.1337 -0.2657 -0.0000 
-0.1337 -0.2655 -0.0000 
-0.1337 -0.2654 -0.0000 
-0.1337 -0.2653 -0.0000 
-0.1337 -0.2653 -0.0000 
-0.1337 -0.2653 -0.0000 
-0.1337 -0.2654 -0.0000 
-0.1337 -0.2654 -0.0000 
-0.1337 -0.2655 -0.0000 
-0.1337 -0.2657 -0.0000 
-0.1337 -0.2658 -0.0000 
-0.1337 -0.2661 -0.0000 
-0.1337 -0.2663 -0.0000 
-0.1334 -0.2667 -0.0000 
-0.1330 -0.2670 -0.0000 
-0.1323 -0.2674 -0.0000 
-0.1316 -0.2677 -0.0000 
-0.1308 -0.2680 -0.0000 
-0.1299 -0.2683 -0.0000 
-0.1289 -0.2686 -0.0000 
-0.1279 -0.2689 -0.0000 
-0.1268 -0.2692 -0.0000 
-0.1257 -0.2695 -0.0000 
-0.1245 -0.2698 -0.0000 
-0.1233 -0.2700 -0.0000 
-0.1221 -0.2703 -0.0000 
-0.1208 -0.2705 -0.0000 
-0.1194 -0.2708 -0.0000 
-0.1181 -0.2710 -0.0000 
-0.1167 -0.2712 -0.0000 
-0.1153 -0.2715 -0.0000 
-0.1139 -0.2717 -0.0000 
-0.1124 -0.2719 -0.0000 
-0.1109 -0.2721 -0.0000 
-0.1095 -0.2723 -0.0000 
-0.1079 -0.2724 -0.0000 
-0.1064 -0.2726 -0.0000 
-0.1048 -0.2728 -0.0000 
-0.1033 -0.2730 -0.0000 
-0.1017 -0.2731 -0.0000 
-0.1001 -0.2733 -0.0000 
-0.0985 -0.2734 -0.0000 
-0.0968 -0.2736 -0.0000 
-0.0952 -0.2737 -0.0000 
-0.0935 -0.2739 -0.0000 
-0.0919 -0.2740 -0.0000 
-0.0902 -0.2741 -0.0000 
-0.0885 -0.2742 -0.0000 
-0.0868 -0.2743 -0.0000 
-0.0851 -0.2744 -0.0000 
-0.0834 -0.2745 -0.0000 
-0.0817 -0.2746 -0.0000 
-0.0800 -0.2747 -0.0000 
-0.0782 -0.2748 -0.0000 
-0.0765 -0.2749 -0.0000 
-0.0747 -0.2750 -0.0000 
-0.0730 -0.2750 -0.0000 
-0.0712 -0.2751 -0.0000 
-0.0695 -0.2752 -0.0000 
-0.0677 -0.2752 -0.0000 
-0.0660 -0.2753 -0.0000 
-0.0642 -0.2753 -0.0000 
-0.0624 -0.2754 -0.0000 
-0.0606 -0.2754 -0.0000 
-0.0589 -0.2754 -0.0000 
-0.0571 -0.2755 -0.0000 
-0.0553 -0.2755 -0.0000 
-0.0536 -0.2755 -0.0000 
-0.0518 -0.2755 -0.0000 
-0.0500 -0.2756 -0.0000 
-0.0483 -0.2756 -0.0000 
-0.0465 -0.2756 -0.0000 
-0.0447 -0.2756 -0.0000 
-0.0430 -0.2756 -0.0000 
-0.0412 -0.2756 -0.0000 
-0.0395 -0.2746 -0.0000 
-0.0395 -0.2736 -0.0000 
-0.0395 -0.2726 -0.0000 
-0.0395 -0.2715 -0.0000 
-0.0395 -0.2703 -0.0000 
-0.0395 -0.2691 -0.0000 
-0.0395 -0.2677 -0.0000 
-0.0394 -0.2664 -0.0000 
-0.0394 -0.2649 -0.0000 
-0.0394 -0.2634 -0.0000 
-0.0394 -0.2617 -0.0000 
-0.0394 -0.2600 -0.0000 
-0.0394 -0.2582 -0.0000 
-0.0394 -0.2563 -0.0000 
-0.0394 -0.2543 -0.0000 
-0.0393 -0.2522 -0.0000 
-0.0393 -0.2500 -0.0000 
-0.0393 -0.2476 -0.0000 
-0.0392 -0.2451 -0.0000 
-0.0392 -0.2425 -0.0000 
-0.0391 -0.2397 -0.0000 
-0.0390 -0.2368 -0.0000 
-0.0389 -0.2337 -0.0000 
-0.0388 -0.2304 -0.0000 
-0.0379 -0.2756 -0.0000 
-0.0364 -0.2755 -0.0000 
-0.0349 -0.2755 -0.0000 
-0.0333 -0.2755 -0.0000 
-0.0318 -0.2755 -0.0000 
-0.0303 -0.2755 -0.0000 
-0.0288 -0.2755 -0.0000 
-0.0273 -0.2755 -0.0000 
-0.0258 -0.2755 -0.0000 
-0.0243 -0.2755 -0.0000 
-0.0228 -0.2755 -0.0000 
-0.0213 -0.2755 -0.0000 
-0.0198 -0.2754 -0.0000 
-0.0183 -0.2754 -0.0000 
-0.0168 -0.2754 -0.0000 
-0.0153 -0.2754 -0.0000 
-0.0138 -0.2754 -0.0000 
-0.0123 -0.2754 -0.0000 
-0.0108 -0.2754 -0.0000 
-0.0093 -0.2754 -0.0000 
-0.0078 -0.2745 -0.0000 
-0.0078 -0.2736 -0.0000 
-0.0078 -0.2725 -0.0000 
-0.0078 -0.2715 -0.0000 
-0.0078 -0.2703 -0.0000 
-0.0078 -0.2691 -0.0000 
-0.0078 -0.2678 -0.0000 
-0.0078 -0.2664 -0.0000 
-0.0078 -0.2650 -0.0000 
-0.0078 -0.2635 -0.0000 
-0.0078 -0.2619 -0.0000 
-0.0079 -0.2601 -0.0000 
-0.0079 -0.2583 -0.0000 
-0.0079 -0.2564 -0.0000 
-0.0079 -0.2544 -0.0000 
-0.0079 -0.2523 -0.0000 
-0.0079 -0.2500 -0.0000 
-0.0079 -0.2476 -0.0000 
-0.0079 -0.2451 -0.0000 
-0.0079 -0.2424 -0.0000 
-0.0079 -0.2396 -0.0000 
-0.0079 -0.2366 -0.0000 
-0.0079 -0.2335 -0.0000 
-0.0078 -0.2302 -0.0000 
-0.1627 0.0039 -0.0000 
-0.1539 0.0039 -0.0000 
-0.1452 0.0039 -0.0000 
-0.1365 0.0039 -0.0000 
-0.1278 0.0039 -0.0000 
-0.1192 0.0039 -0.0000 
-0.1105 0.0040 -0.0000 
-0.1019 0.0040 -0.0000 
-0.0933 0.0041 -0.0000 
-0.0846 0.0042 -0.0000 
-0.0760 0.0043 -0.0000 
-0.0674 0.0045 -0.0000 
-0.0587 0.0046 -0.0000 
-0.0500 0.0048 -0.0000 
-0.0413 0.0051 -0.0000 
-0.1627 0.0129 -0.0000 
-0.1539 0.0129 -0.0000 
-0.1452 0.0129 -0.0000 
-0.1365 0.0129 -0.0000 
-0.1279 0.0129 -0.0000 
-0.1192 0.0129 -0.0000 
-0.1105 0.0130 -0.0000 
-0.1019 0.0130 -0.0000 
-0.0932 0.0131 -0.0000 
-0.0846 0.0132 -0.0000 
-0.0759 0.0133 -0.0000 
-0.0673 0.0134 -0.0000 
-0.0586 0.0136 -0.0000 
-0.0499 0.0138 -0.0000 
-0.0412 0.0140 -0.0000 
-0.1627 0.0218 -0.0000 
-0.1539 0.0218 -0.0000 
-0.1452 0.0218 -0.0000 
-0.1365 0.0219 -0.0000 
-0.1278 0.0219 -0.0000 
-0.1192 0.0219 -0.0000 
-0.1105 0.0220 -0.0000 
-0.1019 0.0220 -0.0000 
-0.0932 0.0221 -0.0000 
-0.0846 0.0222 -0.0000 
-0.0759 0.0223 -0.0000 
-0.0672 0.0224 -0.0000 
-0.0585 0.0225 -0.0000 
-0.0498 0.0227 -0.0000 
-0.0411 0.0228 -0.0000 
-0.1627 0.0308 -0.0000 
-0.1540 0.0308 -0.0000 
-0.1452 0.0308 -0.0000 
-0.1365 0.0308 -0.0000 
-0.1278 0.0308 -0.0000 
-0.1192 0.0309 -0.0000 
-0.1105 0.0309 -0.0000 
-0.1018 0.0310 -0.0000 
-0.0932 0.0311 -0.0000 
-0.0845 0.0311 -0.0000 
-0.0758 0.0312 -0.0000 
-0.0672 0.0313 -0.0000 
-0.0585 0.0315 -0.0000 
-0.0498 0.0316 -0.0000 
-0.0410 0.0317 -0.0000 
-0.1516 -0.2219 -0.0000 
-0.1445 -0.2223 -0.0000 
-0.1377 -0.2225 -0.0000 
-0.1310 -0.2224 -0.0000 
-0.1243 -0.2222 -0.0000 
-0.1175 -0.2219 -0.0000 
-0.1104 -0.2215 -0.0000 
-0.1031 -0.2210 -0.0000 
-0.0956 -0.2206 -0.0000 
-0.0878 -0.2201 -0.0000 
-0.0798 -0.2198 -0.0000 
-0.0717 -0.2194 -0.0000 
-0.0634 -0.2192 -0.0000 
-0.0551 -0.2190 -0.0000 
-0.0468 -0.2188 -0.0000 
-0.1530 -0.2134 -0.0000 
-0.1455 -0.2138 -0.0000 
-0.1384 -0.2139 -0.0000 
-0.1314 -0.2139 -0.0000 
-0.1244 -0.2138 -0.0000 
-0.1173 -0.2135 -0.0000 
-0.1101 -0.2131 -0.0000 
-0.1026 -0.2127 -0.0000 
-0.0950 -0.2123 -0.0000 
-0.0872 -0.2119 -0.0000 
-0.0793 -0.2116 -0.0000 
-0.0712 -0.2112 -0.0000 
-0.0630 -0.2110 -0.0000 
-0.0547 -0.2107 -0.0000 
-0.0464 -0.2105 -0.0000 
-0.1542 -0.2048 -0.0000 
-0.1465 -0.2051 -0.0000 
-0.1390 -0.2053 -0.0000 
-0.1317 -0.2053 -0.0000 
-0.1245 -0.2052 -0.0000 
-0.1172 -0.2050 -0.0000 
-0.1098 -0.2047 -0.0000 
-0.1023 -0.2043 -0.0000 
-0.0946 -0.2040 -0.0000 
-0.0868 -0.2036 -0.0000 
-0.0788 -0.2033 -0.0000 
-0.0707 -0.2029 -0.0000 
-0.0626 -0.2027 -0.0000 
-0.0544 -0.2024 -0.0000 
-0.0461 -0.2022 -0.0000 
-0.1552 -0.1961 -0.0000 
-0.1473 -0.1963 -0.0000 
-0.1397 -0.1965 -0.0000 
-0.1321 -0.1965 -0.0000 
-0.1246 -0.1965 -0.0000 
-0.1172 -0.1963 -0.0000 
-0.1096 -0.1961 -0.0000 
-0.1020 -0.1958 -0.0000 
-0.0942 -0.1955 -0.0000 
-0.0864 -0.1952 -0.0000 
-0.0784 -0.1949 -0.0000 
-0.0703 -0.1946 -0.0000 
-0.0622 -0.1943 -0.0000 
-0.0540 -0.1941 -0.0000 
-0.0457 -0.1939 -0.0000 
-0.1562 -0.1873 -0.0000 
-0.1481 -0.1875 -0.0000 
-0.1402 -0.1877 -0.0000 
-0.1325 -0.1877 -0.0000 
-0.1248 -0.1877 -0.0000 
-0.1172 -0.1876 -0.0000 
-0.1095 -0.1874 -0.0000 
-0.1018 -0.1872 -0.0000 
-0.0940 -0.1869 -0.0000 
-0.0860 -0.1866 -0.0000 
-0.0780 -0.1864 -0.0000 
-0.0700 -0.1861 -0.0000 
-0.0618 -0.1858 -0.0000 
-0.0536 -0.1856 -0.0000 
-0.0454 -0.1854 -0.0000 
-0.1570 -0.1784 -0.0000 
-0.1488 -0.1786 -0.0000 
-0.1408 -0.1788 -0.0000 
-0.1329 -0.1788 -0.0000 
-0.1251 -0.1788 -0.0000 
-0.1173 -0.1788 -0.0000 
-0.1095 -0.1786 -0.0000 
-0.1016 -0.1785 -0.0000 
-0.0937 -0.1782 -0.0000 
-0.0858 -0.1780 -0.0000 
-0.0777 -0.1778 -0.0000 
-0.0696 -0.1775 -0.0000 
-0.0615 -0.1773 -0.0000 
-0.0533 -0.1771 -0.0000 
-0.0450 -0.1769 -0.0000 
-0.1577 -0.1695 -0.0000 
-0.1494 -0.1697 -0.0000 
-0.1413 -0.1698 -0.0000 
-0.1333 -0.1699 -0.0000 
-0.1253 -0.1699 -0.0000 
-0.1174 -0.1699 -0.0000 
-0.1095 -0.1698 -0.0000 
-0.1015 -0.1697 -0.0000 
-0.0936 -0.1695 -0.0000 
-0.0856 -0.1693 -0.0000 
-0.0775 -0.1691 -0.0000 
-0.0694 -0.1689 -0.0000 
-0.0612 -0.1687 -0.0000 
-0.0530 -0.1685 -0.0000 
-0.0447 -0.1683 -0.0000 
-0.1583 -0.1606 -0.0000 
-0.1500 -0.1607 -0.0000 
-0.1417 -0.1609 -0.0000 
-0.1336 -0.1610 -0.0000 
-0.1255 -0.1610 -0.0000 
-0.1175 -0.1610 -0.0000 
-0.1095 -0.1609 -0.0000 
-0.1015 -0.1608 -0.0000 
-0.0935 -0.1607 -0.0000 
-0.0854 -0.1605 -0.0000 
-0.0773 -0.1603 -0.0000 
-0.0691 -0.1602 -0.0000 
-0.0609 -0.1600 -0.0000 
-0.0527 -0.1598 -0.0000 
-0.0444 -0.1597 -0.0000 
-0.1589 -0.1516 -0.0000 
-0.1505 -0.1517 -0.0000 
-0.1422 -0.1519 -0.0000 
-0.1339 -0.1520 -0.0000 
-0.1258 -0.1520 -0.0000 
-0.1177 -0.1520 -0.0000 
-0.1096 -0.1519 -0.0000 
-0.1015 -0.1519 -0.0000 
-0.0934 -0.1518 -0.0000 
-0.0852 -0.1516 -0.0000 
-0.0771 -0.1515 -0.0000 
-0.0689 -0.1514 -0.0000 
-0.0607 -0.1512 -0.0000 
-0.0524 -0.1511 -0.0000 
-0.0441 -0.1509 -0.0000 
-0.1594 -0.1426 -0.0000 
-0.1509 -0.1427 -0.0000 
-0.1425 -0.1428 -0.0000 
-0.1342 -0.1429 -0.0000 
-0.1260 -0.1430 -0.0000 
-0.1178 -0.1430 -0.0000 
-0.1097 -0.1430 -0.0000 
-0.1015 -0.1429 -0.0000 
-0.0933 -0.1428 -0.0000 
-0.0851 -0.1427 -0.0000 
-0.0769 -0.1426 -0.0000 
-0.0687 -0.1425 -0.0000 
-0.0604 -0.1424 -0.0000 
-0.0522 -0.1422 -0.0000 
-0.0438 -0.1421 -0.0000 
-0.1598 -0.1335 -0.0000 
-0.1513 -0.1337 -0.0000 
-0.1429 -0.1338 -0.0000 
-0.1345 -0.1338 -0.0000 
-0.1262 -0.1339 -0.0000 
-0.1180 -0.1339 -0.0000 
-0.1097 -0.1339 -0.0000 
-0.1015 -0.1339 -0.0000 
-0.0933 -0.1338 -0.0000 
-0.0851 -0.1337 -0.0000 
-0.0768 -0.1337 -0.0000 
-0.0686 -0.1336 -0.0000 
-0.0603 -0.1335 -0.0000 
-0.0519 -0.1334 -0.0000 
-0.0436 -0.1332 -0.0000 
-0.1603 -0.1244 -0.0000 
-0.1517 -0.1246 -0.0000 
-0.1432 -0.1247 -0.0000 
-0.1348 -0.1248 -0.0000 
-0.1264 -0.1248 -0.0000 
-0.1181 -0.1248 -0.0000 
-0.1098 -0.1248 -0.0000 
-0.1016 -0.1248 -0.0000 
-0.0933 -0.1248 -0.0000 
-0.0850 -0.1247 -0.0000 
-0.0767 -0.1246 -0.0000 
-0.0684 -0.1246 -0.0000 
-0.0601 -0.1245 -0.0000 
-0.0517 -0.1244 -0.0000 
-0.0433 -0.1243 -0.0000 
-0.1606 -0.1153 -0.0000 
-0.1520 -0.1155 -0.0000 
-0.1435 -0.1156 -0.0000 
-0.1350 -0.1156 -0.0000 
-0.1266 -0.1157 -0.0000 
-0.1183 -0.1157 -0.0000 
-0.1099 -0.1157 -0.0000 
-0.1016 -0.1157 -0.0000 
-0.0933 -0.1157 -0.0000 
-0.0850 -0.1156 -0.0000 
-0.0767 -0.1156 -0.0000 
-0.0683 -0.1155 -0.0000 
-0.0599 -0.1155 -0.0000 
-0.0516 -0.1154 -0.0000 
-0.0431 -0.1153 -0.0000 
-0.1610 -0.1062 -0.0000 
-0.1523 -0.1063 -0.0000 
-0.1438 -0.1064 -0.0000 
-0.1353 -0.1065 -0.0000 
-0.1268 -0.1065 -0.0000 
-0.1184 -0.1066 -0.0000 
-0.1100 -0.1066 -0.0000 
-0.1017 -0.1066 -0.0000 
-0.0933 -0.1066 -0.0000 
-0.0850 -0.1065 -0.0000 
-0.0766 -0.1065 -0.0000 
-0.0682 -0.1064 -0.0000 
-0.0598 -0.1064 -0.0000 
-0.0514 -0.1063 -0.0000 
-0.0429 -0.1062 -0.0000 
-0.1613 -0.0971 -0.0000 
-0.1526 -0.0972 -0.0000 
-0.1440 -0.0972 -0.0000 
-0.1355 -0.0973 -0.0000 
-0.1270 -0.0974 -0.0000 
-0.1185 -0.0974 -0.0000 
-0.1101 -0.0974 -0.0000 
-0.1017 -0.0974 -0.0000 
-0.0933 -0.0974 -0.0000 
-0.0849 -0.0974 -0.0000 
-0.0766 -0.0973 -0.0000 
-0.0681 -0.0973 -0.0000 
-0.0597 -0.0972 -0.0000 
-0.0513 -0.0972 -0.0000 
-0.0428 -0.0971 -0.0000 
-0.1615 -0.0879 -0.0000 
-0.1528 -0.0880 -0.0000 
-0.1442 -0.0881 -0.0000 
-0.1357 -0.0881 -0.0000 
-0.1271 -0.0882 -0.0000 
-0.1187 -0.0882 -0.0000 
-0.1102 -0.0882 -0.0000 
-0.1018 -0.0882 -0.0000 
-0.0934 -0.0882 -0.0000 
-0.0849 -0.0882 -0.0000 
-0.0765 -0.0881 -0.0000 
-0.0681 -0.0881 -0.0000 
-0.0596 -0.0880 -0.0000 
-0.0511 -0.0880 -0.0000 
-0.0426 -0.0879 -0.0000 
-0.1618 -0.0787 -0.0000 
-0.1531 -0.0788 -0.0000 
-0.1444 -0.0789 -0.0000 
-0.1358 -0.0789 -0.0000 
-0.1273 -0.0789 -0.0000 
-0.1188 -0.0790 -0.0000 
-0.1103 -0.0790 -0.0000 
-0.1018 -0.0790 -0.0000 
-0.0934 -0.0790 -0.0000 
-0.0849 -0.0789 -0.0000 
-0.0765 -0.0789 -0.0000 
-0.0680 -0.0789 -0.0000 
-0.0595 -0.0788 -0.0000 
-0.0510 -0.0788 -0.0000 
-0.0425 -0.0787 -0.0000 
-0.1620 -0.0695 -0.0000 
-0.1532 -0.0696 -0.0000 
-0.1446 -0.0696 -0.0000 
-0.1360 -0.0697 -0.0000 
-0.1274 -0.0697 -0.0000 
-0.1189 -0.0697 -0.0000 
-0.1104 -0.0697 -0.0000 
-0.1019 -0.0697 -0.0000 
-0.0934 -0.0697 -0.0000 
-0.0849 -0.0697 -0.0000 
-0.0765 -0.0697 -0.0000 
-0.0680 -0.0696 -0.0000 
-0.0595 -0.0696 -0.0000 
-0.0509 -0.0695 -0.0000 
-0.0423 -0.0695 -0.0000 
-0.1621 -0.0603 -0.0000 
-0.1534 -0.0604 -0.0000 
-0.1447 -0.0604 -0.0000 
-0.1361 -0.0605 -0.0000 
-0.1275 -0.0605 -0.0000 
-0.1190 -0.0605 -0.0000 
-0.1104 -0.0605 -0.0000 
-0.1019 -0.0605 -0.0000 
-0.0934 -0.0605 -0.0000 
-0.0849 -0.0604 -0.0000 
-0.0764 -0.0604 -0.0000 
-0.0679 -0.0603 -0.0000 
-0.0594 -0.0603 -0.0000 
-0.0508 -0.0602 -0.0000 
-0.0422 -0.0602 -0.0000 
-0.1623 -0.0511 -0.0000 
-0.1535 -0.0512 -0.0000 
-0.1449 -0.0512 -0.0000 
-0.1362 -0.0512 -0.0000 
-0.1276 -0.0512 -0.0000 
-0.1190 -0.0513 -0.0000 
-0.1105 -0.0512 -0.0000 
-0.1019 -0.0512 -0.0000 
-0.0934 -0.0512 -0.0000 
-0.0849 -0.0511 -0.0000 
-0.0764 -0.0511 -0.0000 
-0.0679 -0.0510 -0.0000 
-0.0593 -0.0509 -0.0000 
-0.0508 -0.0509 -0.0000 
-0.0421 -0.0508 -0.0000 
-0.1624 -0.0419 -0.0000 
-0.1536 -0.0420 -0.0000 
-0.1450 -0.0420 -0.0000 
-0.1363 -0.0420 -0.0000 
-0.1277 -0.0420 -0.0000 
-0.1191 -0.0420 -0.0000 
-0.1105 -0.0420 -0.0000 
-0.1020 -0.0420 -0.0000 
-0.0934 -0.0419 -0.0000 
-0.0849 -0.0419 -0.0000 
-0.0763 -0.0418 -0.0000 
-0.0678 -0.0417 -0.0000 
-0.0592 -0.0416 -0.0000 
-0.0507 -0.0415 -0.0000 
-0.0421 -0.0414 -0.0000 
-0.1625 -0.0327 -0.0000 
-0.1537 -0.0327 -0.0000 
-0.1450 -0.0328 -0.0000 
-0.1364 -0.0328 -0.0000 
-0.1277 -0.0328 -0.0000 
-0.1191 -0.0328 -0.0000 
-0.1105 -0.0327 -0.0000 
-0.1020 -0.0327 -0.0000 
-0.0934 -0.0326 -0.0000 
-0.0848 -0.0326 -0.0000 
-0.0763 -0.0325 -0.0000 
-0.0677 -0.0324 -0.0000 
-0.0592 -0.0323 -0.0000 
-0.0506 -0.0321 -0.0000 
-0.0420 -0.0320 -0.0000 
-0.1625 -0.0235 -0.0000 
-0.1538 -0.0235 -0.0000 
-0.1451 -0.0235 -0.0000 
-0.1364 -0.0236 -0.0000 
-0.1278 -0.0235 -0.0000 
-0.1192 -0.0235 -0.0000 
-0.1106 -0.0235 -0.0000 
-0.1020 -0.0235 -0.0000 
-0.0934 -0.0234 -0.0000 
-0.0848 -0.0233 -0.0000 
-0.0762 -0.0232 -0.0000 
-0.0676 -0.0231 -0.0000 
-0.0591 -0.0229 -0.0000 
-0.0505 -0.0228 -0.0000 
-0.0418 -0.0226 -0.0000 
-0.1626 -0.0143 -0.0000 
-0.1539 -0.0143 -0.0000 
-0.1452 -0.0144 -0.0000 
-0.1365 -0.0144 -0.0000 
-0.1278 -0.0143 -0.0000 
-0.1192 -0.0143 -0.0000 
-0.1106 -0.0143 -0.0000 
-0.1020 -0.0142 -0.0000 
-0.0934 -0.0142 -0.0000 
-0.0848 -0.0141 -0.0000 
-0.0762 -0.0140 -0.0000 
-0.0676 -0.0138 -0.0000 
-0.0589 -0.0136 -0.0000 
-0.0503 -0.0134 -0.0000 
-0.0417 -0.0132 -0.0000 
-0.0261 0.0056 -0.0000 
-0.0195 0.0059 -0.0000 
-0.0129 0.0062 -0.0000 
-0.0064 0.0064 -0.0000 
-0.0259 0.0143 -0.0000 
-0.0194 0.0145 -0.0000 
-0.0129 0.0146 -0.0000 
-0.0066 0.0145 -0.0000 
-0.0259 0.0230 -0.0000 
-0.0194 0.0231 -0.0000 
-0.0130 0.0231 -0.0000 
-0.0066 0.0231 -0.0000 
-0.0259 0.0318 -0.0000 
-0.0194 0.0318 -0.0000 
-0.0130 0.0318 -0.0000 
-0.0066 0.0318 -0.0000 
-0.0322 -0.2186 -0.0000 
-0.0260 -0.2185 -0.0000 
-0.0198 -0.2184 -0.0000 
-0.0137 -0.2184 -0.0000 
-0.0319 -0.2103 -0.0000 
-0.0257 -0.2102 -0.0000 
-0.0195 -0.2101 -0.0000 
-0.0134 -0.2100 -0.0000 
-0.0316 -0.2019 -0.0000 
-0.0254 -0.2018 -0.0000 
-0.0192 -0.2017 -0.0000 
-0.0131 -0.2017 -0.0000 
-0.0313 -0.1936 -0.0000 
-0.0251 -0.1935 -0.0000 
-0.0189 -0.1934 -0.0000 
-0.0128 -0.1933 -0.0000 
-0.0309 -0.1851 -0.0000 
-0.0247 -0.1850 -0.0000 
-0.0185 -0.1849 -0.0000 
-0.0124 -0.1848 -0.0000 
-0.0306 -0.1766 -0.0000 
-0.0244 -0.1765 -0.0000 
-0.0182 -0.1764 -0.0000 
-0.0120 -0.1763 -0.0000 
-0.0302 -0.1681 -0.0000 
-0.0240 -0.1680 -0.0000 
-0.0178 -0.1679 -0.0000 
-0.0116 -0.1677 -0.0000 
-0.0299 -0.1594 -0.0000 
-0.0236 -0.1593 -0.0000 
-0.0174 -0.1592 -0.0000 
-0.0111 -0.1591 -0.0000 
-0.0295 -0.1507 -0.0000 
-0.0233 -0.1506 -0.0000 
-0.0170 -0.1505 -0.0000 
-0.0107 -0.1504 -0.0000 
-0.0292 -0.1419 -0.0000 
-0.0229 -0.1418 -0.0000 
-0.0166 -0.1417 -0.0000 
-0.0103 -0.1416 -0.0000 
-0.0289 -0.1331 -0.0000 
-0.0226 -0.1330 -0.0000 
-0.0162 -0.1329 -0.0000 