# vtk DataFile Version 2.0
VTK from Matlab
ASCII
DATASET UNSTRUCTURED_GRID
POINTS 12 float
0.0000 0.0000 0.0000 
50.0000 0.0000 0.0000 
100.0000 0.0000 0.0000 
150.0000 0.0000 0.0000 
0.0000 2.5000 0.0000 
50.0000 2.5000 0.0000 
100.0000 2.5000 0.0000 
150.0000 2.5000 0.0000 
0.0000 5.0000 0.0000 
50.0000 5.0000 0.0000 
100.0000 5.0000 0.0000 
150.0000 5.0000 0.0000 

CELLS 6 30
4 0 1 5 4
4 1 2 6 5
4 2 3 7 6
4 4 5 9 8
4 5 6 10 9
4 6 7 11 10

CELL_TYPES 6
9
9
9
9
9
9

POINT_DATA 12
VECTORS u float
-0.0066 4.9920 -0.0000 
-0.0064 3.1702 -0.0000 
-0.0056 1.3591 -0.0000 
-0.0051 -0.4368 -0.0000 
0.0845 4.9920 0.0000 
0.0845 3.1702 0.0000 
0.0845 1.3591 0.0000 
0.0845 -0.4368 0.0000 
0.1757 4.9920 0.0000 
0.1754 3.1702 0.0000 
0.1746 1.3591 0.0000 
0.1741 -0.4368 0.0000 
