# vtk DataFile Version 2.0
VTK from Matlab
ASCII
DATASET UNSTRUCTURED_GRID
POINTS 1812 float
0.0000 0.0000 0.0000 
1.0000 0.0000 0.0000 
2.0000 0.0000 0.0000 
3.0000 0.0000 0.0000 
4.0000 0.0000 0.0000 
5.0000 0.0000 0.0000 
6.0000 0.0000 0.0000 
7.0000 0.0000 0.0000 
8.0000 0.0000 0.0000 
9.0000 0.0000 0.0000 
10.0000 0.0000 0.0000 
11.0000 0.0000 0.0000 
12.0000 0.0000 0.0000 
13.0000 0.0000 0.0000 
14.0000 0.0000 0.0000 
15.0000 0.0000 0.0000 
16.0000 0.0000 0.0000 
17.0000 0.0000 0.0000 
18.0000 0.0000 0.0000 
19.0000 0.0000 0.0000 
20.0000 0.0000 0.0000 
21.0000 0.0000 0.0000 
22.0000 0.0000 0.0000 
23.0000 0.0000 0.0000 
24.0000 0.0000 0.0000 
25.0000 0.0000 0.0000 
26.0000 0.0000 0.0000 
27.0000 0.0000 0.0000 
28.0000 0.0000 0.0000 
29.0000 0.0000 0.0000 
30.0000 0.0000 0.0000 
31.0000 0.0000 0.0000 
32.0000 0.0000 0.0000 
33.0000 0.0000 0.0000 
34.0000 0.0000 0.0000 
35.0000 0.0000 0.0000 
36.0000 0.0000 0.0000 
37.0000 0.0000 0.0000 
38.0000 0.0000 0.0000 
39.0000 0.0000 0.0000 
40.0000 0.0000 0.0000 
41.0000 0.0000 0.0000 
42.0000 0.0000 0.0000 
43.0000 0.0000 0.0000 
44.0000 0.0000 0.0000 
45.0000 0.0000 0.0000 
46.0000 0.0000 0.0000 
47.0000 0.0000 0.0000 
48.0000 0.0000 0.0000 
49.0000 0.0000 0.0000 
50.0000 0.0000 0.0000 
51.0000 0.0000 0.0000 
52.0000 0.0000 0.0000 
53.0000 0.0000 0.0000 
54.0000 0.0000 0.0000 
55.0000 0.0000 0.0000 
56.0000 0.0000 0.0000 
57.0000 0.0000 0.0000 
58.0000 0.0000 0.0000 
59.0000 0.0000 0.0000 
60.0000 0.0000 0.0000 
61.0000 0.0000 0.0000 
62.0000 0.0000 0.0000 
63.0000 0.0000 0.0000 
64.0000 0.0000 0.0000 
65.0000 0.0000 0.0000 
66.0000 0.0000 0.0000 
67.0000 0.0000 0.0000 
68.0000 0.0000 0.0000 
69.0000 0.0000 0.0000 
70.0000 0.0000 0.0000 
71.0000 0.0000 0.0000 
72.0000 0.0000 0.0000 
73.0000 0.0000 0.0000 
74.0000 0.0000 0.0000 
75.0000 0.0000 0.0000 
76.0000 0.0000 0.0000 
77.0000 0.0000 0.0000 
78.0000 0.0000 0.0000 
79.0000 0.0000 0.0000 
80.0000 0.0000 0.0000 
81.0000 0.0000 0.0000 
82.0000 0.0000 0.0000 
83.0000 0.0000 0.0000 
84.0000 0.0000 0.0000 
85.0000 0.0000 0.0000 
86.0000 0.0000 0.0000 
87.0000 0.0000 0.0000 
88.0000 0.0000 0.0000 
89.0000 0.0000 0.0000 
90.0000 0.0000 0.0000 
91.0000 0.0000 0.0000 
92.0000 0.0000 0.0000 
93.0000 0.0000 0.0000 
94.0000 0.0000 0.0000 
95.0000 0.0000 0.0000 
96.0000 0.0000 0.0000 
97.0000 0.0000 0.0000 
98.0000 0.0000 0.0000 
99.0000 0.0000 0.0000 
100.0000 0.0000 0.0000 
101.0000 0.0000 0.0000 
102.0000 0.0000 0.0000 
103.0000 0.0000 0.0000 
104.0000 0.0000 0.0000 
105.0000 0.0000 0.0000 
106.0000 0.0000 0.0000 
107.0000 0.0000 0.0000 
108.0000 0.0000 0.0000 
109.0000 0.0000 0.0000 
110.0000 0.0000 0.0000 
111.0000 0.0000 0.0000 
112.0000 0.0000 0.0000 
113.0000 0.0000 0.0000 
114.0000 0.0000 0.0000 
115.0000 0.0000 0.0000 
116.0000 0.0000 0.0000 
117.0000 0.0000 0.0000 
118.0000 0.0000 0.0000 
119.0000 0.0000 0.0000 
120.0000 0.0000 0.0000 
121.0000 0.0000 0.0000 
122.0000 0.0000 0.0000 
123.0000 0.0000 0.0000 
124.0000 0.0000 0.0000 
125.0000 0.0000 0.0000 
126.0000 0.0000 0.0000 
127.0000 0.0000 0.0000 
128.0000 0.0000 0.0000 
129.0000 0.0000 0.0000 
130.0000 0.0000 0.0000 
131.0000 0.0000 0.0000 
132.0000 0.0000 0.0000 
133.0000 0.0000 0.0000 
134.0000 0.0000 0.0000 
135.0000 0.0000 0.0000 
136.0000 0.0000 0.0000 
137.0000 0.0000 0.0000 
138.0000 0.0000 0.0000 
139.0000 0.0000 0.0000 
140.0000 0.0000 0.0000 
141.0000 0.0000 0.0000 
142.0000 0.0000 0.0000 
143.0000 0.0000 0.0000 
144.0000 0.0000 0.0000 
145.0000 0.0000 0.0000 
146.0000 0.0000 0.0000 
147.0000 0.0000 0.0000 
148.0000 0.0000 0.0000 
149.0000 0.0000 0.0000 
150.0000 0.0000 0.0000 
0.0000 1.0000 0.0000 
1.0000 1.0000 0.0000 
2.0000 1.0000 0.0000 
3.0000 1.0000 0.0000 
4.0000 1.0000 0.0000 
5.0000 1.0000 0.0000 
6.0000 1.0000 0.0000 
7.0000 1.0000 0.0000 
8.0000 1.0000 0.0000 
9.0000 1.0000 0.0000 
10.0000 1.0000 0.0000 
11.0000 1.0000 0.0000 
12.0000 1.0000 0.0000 
13.0000 1.0000 0.0000 
14.0000 1.0000 0.0000 
15.0000 1.0000 0.0000 
16.0000 1.0000 0.0000 
17.0000 1.0000 0.0000 
18.0000 1.0000 0.0000 
19.0000 1.0000 0.0000 
20.0000 1.0000 0.0000 
21.0000 1.0000 0.0000 
22.0000 1.0000 0.0000 
23.0000 1.0000 0.0000 
24.0000 1.0000 0.0000 
25.0000 1.0000 0.0000 
26.0000 1.0000 0.0000 
27.0000 1.0000 0.0000 
28.0000 1.0000 0.0000 
29.0000 1.0000 0.0000 
30.0000 1.0000 0.0000 
31.0000 1.0000 0.0000 
32.0000 1.0000 0.0000 
33.0000 1.0000 0.0000 
34.0000 1.0000 0.0000 
35.0000 1.0000 0.0000 
36.0000 1.0000 0.0000 
37.0000 1.0000 0.0000 
38.0000 1.0000 0.0000 
39.0000 1.0000 0.0000 
40.0000 1.0000 0.0000 
41.0000 1.0000 0.0000 
42.0000 1.0000 0.0000 
43.0000 1.0000 0.0000 
44.0000 1.0000 0.0000 
45.0000 1.0000 0.0000 
46.0000 1.0000 0.0000 
47.0000 1.0000 0.0000 
48.0000 1.0000 0.0000 
49.0000 1.0000 0.0000 
50.0000 1.0000 0.0000 
51.0000 1.0000 0.0000 
52.0000 1.0000 0.0000 
53.0000 1.0000 0.0000 
54.0000 1.0000 0.0000 
55.0000 1.0000 0.0000 
56.0000 1.0000 0.0000 
57.0000 1.0000 0.0000 
58.0000 1.0000 0.0000 
59.0000 1.0000 0.0000 
60.0000 1.0000 0.0000 
61.0000 1.0000 0.0000 
62.0000 1.0000 0.0000 
63.0000 1.0000 0.0000 
64.0000 1.0000 0.0000 
65.0000 1.0000 0.0000 
66.0000 1.0000 0.0000 
67.0000 1.0000 0.0000 
68.0000 1.0000 0.0000 
69.0000 1.0000 0.0000 
70.0000 1.0000 0.0000 
71.0000 1.0000 0.0000 
72.0000 1.0000 0.0000 
73.0000 1.0000 0.0000 
74.0000 1.0000 0.0000 
75.0000 1.0000 0.0000 
76.0000 1.0000 0.0000 
77.0000 1.0000 0.0000 
78.0000 1.0000 0.0000 
79.0000 1.0000 0.0000 
80.0000 1.0000 0.0000 
81.0000 1.0000 0.0000 
82.0000 1.0000 0.0000 
83.0000 1.0000 0.0000 
84.0000 1.0000 0.0000 
85.0000 1.0000 0.0000 
86.0000 1.0000 0.0000 
87.0000 1.0000 0.0000 
88.0000 1.0000 0.0000 
89.0000 1.0000 0.0000 
90.0000 1.0000 0.0000 
91.0000 1.0000 0.0000 
92.0000 1.0000 0.0000 
93.0000 1.0000 0.0000 
94.0000 1.0000 0.0000 
95.0000 1.0000 0.0000 
96.0000 1.0000 0.0000 
97.0000 1.0000 0.0000 
98.0000 1.0000 0.0000 
99.0000 1.0000 0.0000 
100.0000 1.0000 0.0000 
101.0000 1.0000 0.0000 
102.0000 1.0000 0.0000 
103.0000 1.0000 0.0000 
104.0000 1.0000 0.0000 
105.0000 1.0000 0.0000 
106.0000 1.0000 0.0000 
107.0000 1.0000 0.0000 
108.0000 1.0000 0.0000 
109.0000 1.0000 0.0000 
110.0000 1.0000 0.0000 
111.0000 1.0000 0.0000 
112.0000 1.0000 0.0000 
113.0000 1.0000 0.0000 
114.0000 1.0000 0.0000 
115.0000 1.0000 0.0000 
116.0000 1.0000 0.0000 
117.0000 1.0000 0.0000 
118.0000 1.0000 0.0000 
119.0000 1.0000 0.0000 
120.0000 1.0000 0.0000 
121.0000 1.0000 0.0000 
122.0000 1.0000 0.0000 
123.0000 1.0000 0.0000 
124.0000 1.0000 0.0000 
125.0000 1.0000 0.0000 
126.0000 1.0000 0.0000 
127.0000 1.0000 0.0000 
128.0000 1.0000 0.0000 
129.0000 1.0000 0.0000 
130.0000 1.0000 0.0000 
131.0000 1.0000 0.0000 
132.0000 1.0000 0.0000 
133.0000 1.0000 0.0000 
134.0000 1.0000 0.0000 
135.0000 1.0000 0.0000 
136.0000 1.0000 0.0000 
137.0000 1.0000 0.0000 
138.0000 1.0000 0.0000 
139.0000 1.0000 0.0000 
140.0000 1.0000 0.0000 
141.0000 1.0000 0.0000 
142.0000 1.0000 0.0000 
143.0000 1.0000 0.0000 
144.0000 1.0000 0.0000 
145.0000 1.0000 0.0000 
146.0000 1.0000 0.0000 
147.0000 1.0000 0.0000 
148.0000 1.0000 0.0000 
149.0000 1.0000 0.0000 
150.0000 1.0000 0.0000 
0.0000 2.0000 0.0000 
1.0000 2.0000 0.0000 
2.0000 2.0000 0.0000 
3.0000 2.0000 0.0000 
4.0000 2.0000 0.0000 
5.0000 2.0000 0.0000 
6.0000 2.0000 0.0000 
7.0000 2.0000 0.0000 
8.0000 2.0000 0.0000 
9.0000 2.0000 0.0000 
10.0000 2.0000 0.0000 
11.0000 2.0000 0.0000 
12.0000 2.0000 0.0000 
13.0000 2.0000 0.0000 
14.0000 2.0000 0.0000 
15.0000 2.0000 0.0000 
16.0000 2.0000 0.0000 
17.0000 2.0000 0.0000 
18.0000 2.0000 0.0000 
19.0000 2.0000 0.0000 
20.0000 2.0000 0.0000 
21.0000 2.0000 0.0000 
22.0000 2.0000 0.0000 
23.0000 2.0000 0.0000 
24.0000 2.0000 0.0000 
25.0000 2.0000 0.0000 
26.0000 2.0000 0.0000 
27.0000 2.0000 0.0000 
28.0000 2.0000 0.0000 
29.0000 2.0000 0.0000 
30.0000 2.0000 0.0000 
31.0000 2.0000 0.0000 
32.0000 2.0000 0.0000 
33.0000 2.0000 0.0000 
34.0000 2.0000 0.0000 
35.0000 2.0000 0.0000 
36.0000 2.0000 0.0000 
37.0000 2.0000 0.0000 
38.0000 2.0000 0.0000 
39.0000 2.0000 0.0000 
40.0000 2.0000 0.0000 
41.0000 2.0000 0.0000 
42.0000 2.0000 0.0000 
43.0000 2.0000 0.0000 
44.0000 2.0000 0.0000 
45.0000 2.0000 0.0000 
46.0000 2.0000 0.0000 
47.0000 2.0000 0.0000 
48.0000 2.0000 0.0000 
49.0000 2.0000 0.0000 
50.0000 2.0000 0.0000 
51.0000 2.0000 0.0000 
52.0000 2.0000 0.0000 
53.0000 2.0000 0.0000 
54.0000 2.0000 0.0000 
55.0000 2.0000 0.0000 
56.0000 2.0000 0.0000 
57.0000 2.0000 0.0000 
58.0000 2.0000 0.0000 
59.0000 2.0000 0.0000 
60.0000 2.0000 0.0000 
61.0000 2.0000 0.0000 
62.0000 2.0000 0.0000 
63.0000 2.0000 0.0000 
64.0000 2.0000 0.0000 
65.0000 2.0000 0.0000 
66.0000 2.0000 0.0000 
67.0000 2.0000 0.0000 
68.0000 2.0000 0.0000 
69.0000 2.0000 0.0000 
70.0000 2.0000 0.0000 
71.0000 2.0000 0.0000 
72.0000 2.0000 0.0000 
73.0000 2.0000 0.0000 
74.0000 2.0000 0.0000 
75.0000 2.0000 0.0000 
76.0000 2.0000 0.0000 
77.0000 2.0000 0.0000 
78.0000 2.0000 0.0000 
79.0000 2.0000 0.0000 
80.0000 2.0000 0.0000 
81.0000 2.0000 0.0000 
82.0000 2.0000 0.0000 
83.0000 2.0000 0.0000 
84.0000 2.0000 0.0000 
85.0000 2.0000 0.0000 
86.0000 2.0000 0.0000 
87.0000 2.0000 0.0000 
88.0000 2.0000 0.0000 
89.0000 2.0000 0.0000 
90.0000 2.0000 0.0000 
91.0000 2.0000 0.0000 
92.0000 2.0000 0.0000 
93.0000 2.0000 0.0000 
94.0000 2.0000 0.0000 
95.0000 2.0000 0.0000 
96.0000 2.0000 0.0000 
97.0000 2.0000 0.0000 
98.0000 2.0000 0.0000 
99.0000 2.0000 0.0000 
100.0000 2.0000 0.0000 
101.0000 2.0000 0.0000 
102.0000 2.0000 0.0000 
103.0000 2.0000 0.0000 
104.0000 2.0000 0.0000 
105.0000 2.0000 0.0000 
106.0000 2.0000 0.0000 
107.0000 2.0000 0.0000 
108.0000 2.0000 0.0000 
109.0000 2.0000 0.0000 
110.0000 2.0000 0.0000 
111.0000 2.0000 0.0000 
112.0000 2.0000 0.0000 
113.0000 2.0000 0.0000 
114.0000 2.0000 0.0000 
115.0000 2.0000 0.0000 
116.0000 2.0000 0.0000 
117.0000 2.0000 0.0000 
118.0000 2.0000 0.0000 
119.0000 2.0000 0.0000 
120.0000 2.0000 0.0000 
121.0000 2.0000 0.0000 
122.0000 2.0000 0.0000 
123.0000 2.0000 0.0000 
[...]
POINT_DATA 1812
VECTORS u float
-0.0913 2.1355 -0.0000 
-0.0913 2.0998 -0.0000 
-0.0913 2.0640 -0.0000 
-0.0912 2.0283 -0.0000 
-0.0912 1.9926 -0.0000 
-0.0910 1.9569 -0.0000 
-0.0909 1.9213 -0.0000 
-0.0908 1.8857 -0.0000 
-0.0906 1.8503 -0.0000 
-0.0904 1.8148 -0.0000 
-0.0901 1.7795 -0.0000 
-0.0899 1.7443 -0.0000 
-0.0896 1.7092 -0.0000 
-0.0893 1.6742 -0.0000 
-0.0889 1.6393 -0.0000 
-0.0886 1.6046 -0.0000 
-0.0882 1.5700 -0.0000 
-0.0878 1.5356 -0.0000 
-0.0874 1.5013 -0.0000 
-0.0869 1.4672 -0.0000 
-0.0864 1.4334 -0.0000 
-0.0859 1.3997 -0.0000 
-0.0854 1.3662 -0.0000 
-0.0848 1.3329 -0.0000 
-0.0843 1.2999 -0.0000 
-0.0836 1.2671 -0.0000 
-0.0830 1.2345 -0.0000 
-0.0824 1.2022 -0.0000 
-0.0817 1.1702 -0.0000 
-0.0810 1.1384 -0.0000 
-0.0803 1.1069 -0.0000 
-0.0795 1.0757 -0.0000 
-0.0787 1.0449 -0.0000 
-0.0779 1.0143 -0.0000 
-0.0771 0.9841 -0.0000 
-0.0763 0.9542 -0.0000 
-0.0754 0.9246 -0.0000 
-0.0745 0.8954 -0.0000 
-0.0736 0.8666 -0.0000 
-0.0726 0.8381 -0.0000 
-0.0716 0.8101 -0.0000 
-0.0707 0.7824 -0.0000 
-0.0696 0.7551 -0.0000 
-0.0686 0.7282 -0.0000 
-0.0676 0.7018 -0.0000 
-0.0665 0.6758 -0.0000 
-0.0654 0.6502 -0.0000 
-0.0643 0.6250 -0.0000 
-0.0631 0.6003 -0.0000 
-0.0620 0.5761 -0.0000 
-0.0608 0.5523 -0.0000 
-0.0596 0.5291 -0.0000 
-0.0584 0.5062 -0.0000 
-0.0572 0.4839 -0.0000 
-0.0560 0.4621 -0.0000 
-0.0547 0.4408 -0.0000 
-0.0535 0.4199 -0.0000 
-0.0522 0.3996 -0.0000 
-0.0509 0.3798 -0.0000 
-0.0496 0.3605 -0.0000 
-0.0483 0.3418 -0.0000 
-0.0470 0.3235 -0.0000 
-0.0457 0.3058 -0.0000 
-0.0444 0.2886 -0.0000 
-0.0431 0.2719 -0.0000 
-0.0418 0.2558 -0.0000 
-0.0405 0.2401 -0.0000 
-0.0392 0.2250 -0.0000 
-0.0379 0.2105 -0.0000 
-0.0366 0.1964 -0.0000 
-0.0353 0.1829 -0.0000 
-0.0341 0.1698 -0.0000 
-0.0328 0.1573 -0.0000 
-0.0316 0.1453 -0.0000 
-0.0303 0.1338 -0.0000 
-0.0291 0.1228 -0.0000 
-0.0279 0.1123 -0.0000 
-0.0267 0.1023 -0.0000 
-0.0255 0.0927 -0.0000 
-0.0244 0.0836 -0.0000 
-0.0232 0.0750 -0.0000 
-0.0221 0.0668 -0.0000 
-0.0211 0.0590 -0.0000 
-0.0200 0.0517 -0.0000 
-0.0190 0.0448 -0.0000 
-0.0180 0.0383 -0.0000 
-0.0170 0.0322 -0.0000 
-0.0161 0.0265 -0.0000 
-0.0151 0.0212 -0.0000 
-0.0143 0.0162 -0.0000 
-0.0134 0.0116 -0.0000 
-0.0126 0.0073 -0.0000 
-0.0118 0.0034 -0.0000 
-0.0110 -0.0003 -0.0000 
-0.0103 -0.0036 -0.0000 
-0.0096 -0.0067 -0.0000 
-0.0089 -0.0095 -0.0000 
-0.0083 -0.0120 -0.0000 
-0.0077 -0.0143 -0.0000 
-0.0071 -0.0164 -0.0000 
-0.0066 -0.0182 -0.0000 
-0.0061 -0.0198 -0.0000 
-0.0056 -0.0212 -0.0000 
-0.0051 -0.0224 -0.0000 
-0.0047 -0.0235 -0.0000 
-0.0043 -0.0244 -0.0000 
-0.0039 -0.0251 -0.0000 
-0.0035 -0.0257 -0.0000 
-0.0032 -0.0262 -0.0000 
-0.0029 -0.0265 -0.0000 
-0.0026 -0.0267 -0.0000 
-0.0023 -0.0268 -0.0000 
-0.0021 -0.0268 -0.0000 
-0.0018 -0.0267 -0.0000 
-0.0016 -0.0265 -0.0000 
-0.0014 -0.0263 -0.0000 
-0.0013 -0.0259 -0.0000 
-0.0011 -0.0255 -0.0000 
-0.0010 -0.0251 -0.0000 
-0.0008 -0.0246 -0.0000 
-0.0007 -0.0240 -0.0000 
-0.0006 -0.0234 -0.0000 
-0.0005 -0.0228 -0.0000 
-0.0004 -0.0221 -0.0000 
-0.0004 -0.0214 -0.0000 
-0.0003 -0.0207 -0.0000 
-0.0002 -0.0199 -0.0000 
-0.0002 -0.0192 -0.0000 
-0.0001 -0.0184 -0.0000 
-0.0001 -0.0176 -0.0000 
-0.0001 -0.0168 -0.0000 
-0.0001 -0.0159 -0.0000 
-0.0000 -0.0151 -0.0000 
-0.0000 -0.0143 -0.0000 
-0.0000 -0.0134 -0.0000 
0.0000 -0.0126 0.0000 
0.0000 -0.0118 0.0000 
0.0000 -0.0109 0.0000 
0.0000 -0.0101 0.0000 
0.0000 -0.0092 0.0000 
0.0000 -0.0084 0.0000 
0.0000 -0.0075 0.0000 
0.0000 -0.0067 0.0000 
0.0000 -0.0058 0.0000 
0.0000 -0.0050 0.0000 
0.0000 -0.0042 0.0000 
0.0000 -0.0033 0.0000 
0.0000 -0.0025 0.0000 
0.0000 -0.0017 0.0000 
0.0000 -0.0008 0.0000 
0.0000 0.0000 0.0000 
-0.0556 2.1355 -0.0000 
-0.0556 2.0998 -0.0000 
-0.0556 2.0640 -0.0000 
-0.0555 2.0283 -0.0000 
-0.0555 1.9926 -0.0000 
-0.0554 1.9569 -0.0000 
-0.0553 1.9213 -0.0000 
-0.0553 1.8857 -0.0000 
-0.0551 1.8502 -0.0000 
-0.0550 1.8148 -0.0000 
-0.0549 1.7794 -0.0000 
-0.0547 1.7442 -0.0000 
-0.0545 1.7091 -0.0000 
-0.0544 1.6741 -0.0000 
-0.0542 1.6392 -0.0000 
-0.0539 1.6044 -0.0000 
-0.0537 1.5699 -0.0000 
-0.0535 1.5354 -0.0000 
-0.0532 1.5012 -0.0000 
-0.0529 1.4671 -0.0000 
-0.0527 1.4332 -0.0000 
-0.0524 1.3995 -0.0000 
-0.0520 1.3660 -0.0000 
-0.0517 1.3327 -0.0000 
-0.0514 1.2996 -0.0000 
-0.0510 1.2668 -0.0000 
-0.0506 1.2342 -0.0000 
-0.0502 1.2019 -0.0000 
-0.0498 1.1699 -0.0000 
-0.0494 1.1381 -0.0000 
-0.0490 1.1066 -0.0000 
-0.0485 1.0754 -0.0000 
-0.0480 1.0446 -0.0000 
-0.0476 1.0140 -0.0000 
-0.0471 0.9837 -0.0000 
-0.0466 0.9538 -0.0000 
-0.0460 0.9243 -0.0000 
-0.0455 0.8951 -0.0000 
-0.0449 0.8662 -0.0000 
-0.0444 0.8378 -0.0000 
-0.0438 0.8097 -0.0000 
-0.0432 0.7820 -0.0000 
-0.0426 0.7547 -0.0000 
-0.0420 0.7278 -0.0000 
-0.0413 0.7014 -0.0000 
-0.0407 0.6753 -0.0000 
-0.0400 0.6497 -0.0000 
-0.0394 0.6246 -0.0000 
-0.0387 0.5999 -0.0000 
-0.0380 0.5756 -0.0000 
-0.0373 0.5519 -0.0000 
-0.0366 0.5286 -0.0000 
-0.0359 0.5058 -0.0000 
-0.0351 0.4834 -0.0000 
-0.0344 0.4616 -0.0000 
-0.0336 0.4403 -0.0000 
-0.0329 0.4195 -0.0000 
-0.0321 0.3991 -0.0000 
-0.0314 0.3793 -0.0000 
-0.0306 0.3600 -0.0000 
-0.0298 0.3413 -0.0000 
-0.0290 0.3230 -0.0000 
-0.0283 0.3053 -0.0000 
-0.0275 0.2881 -0.0000 
-0.0267 0.2714 -0.0000 
-0.0259 0.2553 -0.0000 
-0.0251 0.2396 -0.0000 
-0.0244 0.2245 -0.0000 
-0.0236 0.2100 -0.0000 
-0.0228 0.1959 -0.0000 
-0.0221 0.1824 -0.0000 
-0.0213 0.1693 -0.0000 
-0.0205 0.1568 -0.0000 
-0.0198 0.1448 -0.0000 
-0.0190 0.1333 -0.0000 
-0.0183 0.1223 -0.0000 
-0.0176 0.1118 -0.0000 
-0.0169 0.1018 -0.0000 
-0.0162 0.0922 -0.0000 
-0.0155 0.0832 -0.0000 
-0.0148 0.0745 -0.0000 
-0.0142 0.0664 -0.0000 
-0.0135 0.0586 -0.0000 
-0.0129 0.0513 -0.0000 
-0.0123 0.0444 -0.0000 
-0.0117 0.0380 -0.0000 
-0.0111 0.0319 -0.0000 
-0.0105 0.0262 -0.0000 
-0.0100 0.0209 -0.0000 
-0.0094 0.0159 -0.0000 
-0.0089 0.0113 -0.0000 
-0.0084 0.0070 -0.0000 
-0.0080 0.0031 -0.0000 
-0.0075 -0.0006 -0.0000 
-0.0071 -0.0039 -0.0000 
-0.0066 -0.0070 -0.0000 
-0.0062 -0.0097 -0.0000 
-0.0059 -0.0123 -0.0000 
-0.0055 -0.0145 -0.0000 
-0.0051 -0.0166 -0.0000 
-0.0048 -0.0184 -0.0000 
-0.0045 -0.0200 -0.0000 
-0.0042 -0.0214 -0.0000 
-0.0039 -0.0226 -0.0000 
-0.0037 -0.0237 -0.0000 
-0.0034 -0.0245 -0.0000 
-0.0032 -0.0253 -0.0000 
-0.0030 -0.0258 -0.0000 
-0.0028 -0.0263 -0.0000 
-0.0026 -0.0266 -0.0000 
-0.0024 -0.0268 -0.0000 
-0.0023 -0.0269 -0.0000 
-0.0021 -0.0269 -0.0000 
-0.0020 -0.0268 -0.0000 
-0.0018 -0.0266 -0.0000 
-0.0017 -0.0263 -0.0000 
-0.0016 -0.0260 -0.0000 
-0.0015 -0.0256 -0.0000 
-0.0014 -0.0251 -0.0000 
-0.0014 -0.0246 -0.0000 
-0.0013 -0.0241 -0.0000 
-0.0012 -0.0235 -0.0000 
-0.0012 -0.0228 -0.0000 
-0.0011 -0.0221 -0.0000 
-0.0011 -0.0214 -0.0000 
-0.0010 -0.0207 -0.0000 
-0.0010 -0.0200 -0.0000 
-0.0010 -0.0192 -0.0000 
-0.0009 -0.0184 -0.0000 
-0.0009 -0.0176 -0.0000 
-0.0009 -0.0168 -0.0000 
-0.0009 -0.0160 -0.0000 
-0.0009 -0.0151 -0.0000 
-0.0008 -0.0143 -0.0000 
-0.0008 -0.0135 -0.0000 
-0.0008 -0.0126 -0.0000 
-0.0008 -0.0118 -0.0000 
-0.0008 -0.0109 -0.0000 
-0.0008 -0.0101 -0.0000 
-0.0008 -0.0092 -0.0000 
-0.0008 -0.0084 -0.0000 
-0.0008 -0.0075 -0.0000 
-0.0008 -0.0067 -0.0000 
-0.0008 -0.0058 -0.0000 
-0.0008 -0.0050 -0.0000 
-0.0008 -0.0042 -0.0000 
-0.0008 -0.0033 -0.0000 
-0.0008 -0.0025 -0.0000 
-0.0008 -0.0017 -0.0000 
-0.0008 -0.0008 -0.0000 
-0.0008 0.0000 -0.0000 
-0.0199 2.1355 -0.0000 
-0.0199 2.0998 -0.0000 
-0.0199 2.0640 -0.0000 
-0.0199 2.0283 -0.0000 
-0.0199 1.9925 -0.0000 
-0.0198 1.9569 -0.0000 
-0.0198 1.9212 -0.0000 
-0.0198 1.8856 -0.0000 
-0.0197 1.8501 -0.0000 
-0.0197 1.8147 -0.0000 
-0.0197 1.7794 -0.0000 
-0.0196 1.7441 -0.0000 
-0.0196 1.7090 -0.0000 
-0.0195 1.6740 -0.0000 
-0.0194 1.6391 -0.0000 
-0.0194 1.6044 -0.0000 
-0.0193 1.5698 -0.0000 
-0.0192 1.5353 -0.0000 
-0.0191 1.5011 -0.0000 
-0.0190 1.4670 -0.0000 
-0.0189 1.4331 -0.0000 
-0.0188 1.3994 -0.0000 
-0.0187 1.3659 -0.0000 
-0.0186 1.3326 -0.0000 
-0.0185 1.2995 -0.0000 
-0.0184 1.2667 -0.0000 
-0.0182 1.2341 -0.0000 
-0.0181 1.2018 -0.0000 
-0.0180 1.1697 -0.0000 
-0.0178 1.1380 -0.0000 
-0.0177 1.1065 -0.0000 
-0.0175 1.0753 -0.0000 
-0.0174 1.0444 -0.0000 
-0.0172 1.0138 -0.0000 
-0.0171 0.9836 -0.0000 
-0.0169 0.9537 -0.0000 
-0.0167 0.9241 -0.0000 
-0.0165 0.8949 -0.0000 
-0.0164 0.8660 -0.0000 
-0.0162 0.8376 -0.0000 
-0.0160 0.8095 -0.0000 
-0.0158 0.7818 -0.0000 
-0.0156 0.7545 -0.0000 
-0.0154 0.7276 -0.0000 
-0.0152 0.7011 -0.0000 
-0.0149 0.6751 -0.0000 
-0.0147 0.6495 -0.0000 
-0.0145 0.6244 -0.0000 
-0.0143 0.5997 -0.0000 
-0.0140 0.5754 -0.0000 
-0.0138 0.5517 -0.0000 
-0.0136 0.5284 -0.0000 
-0.0133 0.5055 -0.0000 
-0.0131 0.4832 -0.0000 
-0.0128 0.4614 -0.0000 
-0.0126 0.4400 -0.0000 
-0.0123 0.4192 -0.0000 
-0.0121 0.3989 -0.0000 
-0.0118 0.3791 -0.0000 
-0.0116 0.3598 -0.0000 
-0.0113 0.3410 -0.0000 
-0.0111 0.3228 -0.0000 
-0.0108 0.3050 -0.0000 
-0.0106 0.2878 -0.0000 
-0.0103 0.2711 -0.0000 
-0.0100 0.2550 -0.0000 
-0.0098 0.2394 -0.0000 
-0.0095 0.2243 -0.0000 
-0.0093 0.2097 -0.0000 
-0.0090 0.1956 -0.0000 
-0.0087 0.1821 -0.0000 
-0.0085 0.1691 -0.0000 
-0.0082 0.1566 -0.0000 
-0.0080 0.1446 -0.0000 
-0.0078 0.1331 -0.0000 
-0.0075 0.1221 -0.0000 
-0.0073 0.1116 -0.0000 
-0.0070 0.1016 -0.0000 
-0.0068 0.0920 -0.0000 
-0.0066 0.0829 -0.0000 
-0.0063 0.0743 -0.0000 
-0.0061 0.0661 -0.0000 
-0.0059 0.0584 -0.0000 
-0.0057 0.0511 -0.0000 
-0.0055 0.0442 -0.0000 
-0.0053 0.0378 -0.0000 
-0.0051 0.0317 -0.0000 
-0.0049 0.0260 -0.0000 
-0.0047 0.0207 -0.0000 
-0.0046 0.0157 -0.0000 
-0.0044 0.0111 -0.0000 
-0.0042 0.0069 -0.0000 
-0.0041 0.0029 -0.0000 
-0.0039 -0.0007 -0.0000 
-0.0038 -0.0040 -0.0000 
-0.0036 -0.0071 -0.0000 
-0.0035 -0.0099 -0.0000 
-0.0034 -0.0124 -0.0000 
-0.0032 -0.0147 -0.0000 
-0.0031 -0.0167 -0.0000 
-0.0030 -0.0185 -0.0000 
-0.0029 -0.0201 -0.0000 
-0.0028 -0.0215 -0.0000 
-0.0027 -0.0227 -0.0000 
-0.0026 -0.0238 -0.0000 
-0.0026 -0.0246 -0.0000 
-0.0025 -0.0253 -0.0000 
-0.0024 -0.0259 -0.0000 
-0.0023 -0.0264 -0.0000 
-0.0023 -0.0267 -0.0000 
-0.0022 -0.0269 -0.0000 
-0.0022 -0.0269 -0.0000 
-0.0021 -0.0269 -0.0000 
-0.0021 -0.0268 -0.0000 
-0.0020 -0.0266 -0.0000 
-0.0020 -0.0264 -0.0000 
-0.0019 -0.0260 -0.0000 
-0.0019 -0.0256 -0.0000 
-0.0019 -0.0252 -0.0000 
-0.0019 -0.0246 -0.0000 
-0.0018 -0.0241 -0.0000 
-0.0018 -0.0235 -0.0000 
-0.0018 -0.0228 -0.0000 
-0.0018 -0.0222 -0.0000 
-0.0018 -0.0215 -0.0000 
-0.0017 -0.0207 -0.0000 
-0.0017 -0.0200 -0.0000 
-0.0017 -0.0192 -0.0000 
-0.0017 -0.0184 -0.0000 
-0.0017 -0.0176 -0.0000 
-0.0017 -0.0168 -0.0000 
-0.0017 -0.0160 -0.0000 
-0.0017 -0.0151 -0.0000 
-0.0017 -0.0143 -0.0000 
-0.0017 -0.0135 -0.0000 
-0.0017 -0.0126 -0.0000 
-0.0017 -0.0118 -0.0000 
-0.0017 -0.0109 -0.0000 
-0.0017 -0.0101 -0.0000 
-0.0017 -0.0092 -0.0000 
-0.0017 -0.0084 -0.0000 
-0.0017 -0.0075 -0.0000 
-0.0017 -0.0067 -0.0000 
-0.0017 -0.0058 -0.0000 
-0.0017 -0.0050 -0.0000 
-0.0017 -0.0042 -0.0000 
-0.0017 -0.0033 -0.0000 
-0.0017 -0.0025 -0.0000 
-0.0017 -0.0017 -0.0000 
-0.0017 -0.0008 -0.0000 
-0.0017 0.0000 -0.0000 
0.0158 2.1355 0.0000 
0.0157 2.0998 0.0000 
0.0157 2.0640 0.0000 
0.0158 2.0283 0.0000 
0.0157 1.9925 0.0000 
0.0157 1.9569 0.0000 
0.0157 1.9212 0.0000 
0.0157 1.8856 0.0000 
0.0156 1.8501 0.0000 
0.0156 1.8147 0.0000 
0.0155 1.7794 0.0000 
0.0155 1.7441 0.0000 
0.0154 1.7090 0.0000 
0.0154 1.6740 0.0000 
0.0153 1.6391 0.0000 
0.0152 1.6044 0.0000 
0.0152 1.5698 0.0000 
0.0151 1.5353 0.0000 
0.0150 1.5011 0.0000 
0.0149 1.4670 0.0000 
0.0148 1.4331 0.0000 
0.0147 1.3994 0.0000 
0.0146 1.3659 0.0000 
0.0145 1.3326 0.0000 
0.0144 1.2995 0.0000 
0.0142 1.2667 0.0000 
0.0141 1.2341 0.0000 
0.0140 1.2018 0.0000 
0.0139 1.1697 0.0000 
0.0137 1.1380 0.0000 
0.0136 1.1065 0.0000 
0.0134 1.0753 0.0000 
0.0133 1.0444 0.0000 
0.0131 1.0138 0.0000 
0.0129 0.9836 0.0000 
0.0128 0.9537 0.0000 
0.0126 0.9241 0.0000 
0.0124 0.8949 0.0000 
0.0122 0.8660 0.0000 
0.0120 0.8376 0.0000 
0.0118 0.8095 0.0000 
0.0116 0.7818 0.0000 
0.0114 0.7545 0.0000 
0.0112 0.7276 0.0000 
0.0110 0.7011 0.0000 
0.0108 0.6751 0.0000 
0.0106 0.6495 0.0000 
0.0104 0.6244 0.0000 
0.0101 0.5997 0.0000 
0.0099 0.5754 0.0000 
0.0097 0.5517 0.0000 
0.0094 0.5284 0.0000 
0.0092 0.5055 0.0000 
0.0089 0.4832 0.0000 
0.0087 0.4614 0.0000 
0.0084 0.4400 0.0000 
0.0082 0.4192 0.0000 
0.0079 0.3989 0.0000 
0.0077 0.3791 0.0000 
0.0074 0.3598 0.0000 
0.0072 0.3410 0.0000 
0.0069 0.3228 0.0000 
0.0066 0.3050 0.0000 
0.0064 0.2878 0.0000 
0.0061 0.2712 0.0000 
0.0059 0.2550 0.0000 
0.0056 0.2394 0.0000 
0.0053 0.2243 0.0000 
0.0051 0.2097 0.0000 
0.0048 0.1957 0.0000 
0.0046 0.1821 0.0000 
0.0043 0.1691 0.0000 
0.0040 0.1566 0.0000 
0.0038 0.1446 0.0000 
0.0035 0.1331 0.0000 
0.0033 0.1221 0.0000 
0.0031 0.1116 0.0000 
0.0028 0.1016 0.0000 
0.0026 0.0920 0.0000 
0.0024 0.0829 0.0000 
0.0021 0.0743 0.0000 
0.0019 0.0661 0.0000 
0.0017 0.0584 0.0000 
0.0015 0.0511 0.0000 
0.0013 0.0442 0.0000 
0.0011 0.0378 0.0000 
0.0009 0.0317 0.0000 
0.0007 0.0260 0.0000 
0.0005 0.0207 0.0000 
0.0003 0.0157 0.0000 
0.0002 0.0111 0.0000 
-0.0000 0.0069 -0.0000 
-0.0002 0.0029 -0.0000 
-0.0003 -0.0007 -0.0000 
-0.0005 -0.0040 -0.0000 
-0.0006 -0.0071 -0.0000 
-0.0007 -0.0099 -0.0000 
-0.0009 -0.0124 -0.0000 
-0.0010 -0.0147 -0.0000 
-0.0011 -0.0167 -0.0000 
-0.0012 -0.0185 -0.0000 
-0.0013 -0.0201 -0.0000 
-0.0014 -0.0215 -0.0000 
-0.0015 -0.0227 -0.0000 
-0.0016 -0.0238 -0.0000 
-0.0017 -0.0246 -0.0000 
-0.0017 -0.0253 -0.0000 
-0.0018 -0.0259 -0.0000 
-0.0019 -0.0264 -0.0000 
-0.0019 -0.0267 -0.0000 
-0.0020 -0.0269 -0.0000 
-0.0021 -0.0270 -0.0000 
-0.0021 -0.0269 -0.0000 
-0.0021 -0.0268 -0.0000 
-0.0022 -0.0266 -0.0000 
-0.0022 -0.0264 -0.0000 
-0.0023 -0.0260 -0.0000 
-0.0023 -0.0256 -0.0000 
-0.0023 -0.0252 -0.0000 
-0.0023 -0.0246 -0.0000 
-0.0024 -0.0241 -0.0000 
-0.0024 -0.0235 -0.0000 
-0.0024 -0.0228 -0.0000 
-0.0024 -0.0222 -0.0000 
-0.0024 -0.0215 -0.0000 
-0.0025 -0.0207 -0.0000 
-0.0025 -0.0200 -0.0000 
-0.0025 -0.0192 -0.0000 
-0.0025 -0.0184 -0.0000 
-0.0025 -0.0176 -0.0000 
-0.0025 -0.0168 -0.0000 
-0.0025 -0.0160 -0.0000 
-0.0025 -0.0151 -0.0000 
-0.0025 -0.0143 -0.0000 
-0.0025 -0.0135 -0.0000 
-0.0025 -0.0126 -0.0000 
-0.0025 -0.0118 -0.0000 
-0.0025 -0.0109 -0.0000 
-0.0025 -0.0101 -0.0000 
-0.0025 -0.0092 -0.0000 
-0.0025 -0.0084 -0.0000 
-0.0025 -0.0075 -0.0000 
-0.0025 -0.0067 -0.0000 
-0.0025 -0.0059 -0.0000 
-0.0025 -0.0050 -0.0000 
-0.0025 -0.0042 -0.0000 
-0.0025 -0.0033 -0.0000 
-0.0025 -0.0025 -0.0000 
-0.0025 -0.0017 -0.0000 
-0.0025 -0.0008 -0.0000 
-0.0025 0.0000 -0.0000 
0.0515 2.1357 0.0000 
0.0514 2.0998 0.0000 
0.0515 2.0640 0.0000 
0.0514 2.0283 0.0000 
0.0514 1.9925 0.0000 
0.0513 1.9569 0.0000 
0.0512 1.9212 0.0000 
0.0511 1.8857 0.0000 
0.0510 1.8502 0.0000 
0.0509 1.8148 0.0000 
0.0508 1.7794 0.0000 
0.0506 1.7442 0.0000 
0.0504 1.7091 0.0000 
0.0502 1.6741 0.0000 
0.0500 1.6392 0.0000 
0.0498 1.6044 0.0000 
0.0496 1.5699 0.0000 
0.0494 1.5354 0.0000 
0.0491 1.5012 0.0000 
0.0488 1.4671 0.0000 
0.0485 1.4332 0.0000 
0.0482 1.3995 0.0000 
0.0479 1.3660 0.0000 
0.0476 1.3327 0.0000 
0.0472 1.2996 0.0000 
0.0469 1.2668 0.0000 
0.0465 1.2342 0.0000 
0.0461 1.2019 0.0000 
0.0457 1.1699 0.0000 
0.0453 1.1381 0.0000 
0.0448 1.1066 0.0000 
0.0444 1.0754 0.0000 
0.0439 1.0446 0.0000 
0.0434 1.0140 0.0000 
0.0429 0.9837 0.0000 
0.0424 0.9538 0.0000 
0.0419 0.9243 0.0000 
0.0414 0.8951 0.0000 
0.0408 0.8662 0.0000 
0.0402 0.8378 0.0000 
0.0397 0.8097 0.0000 
0.0391 0.7820 0.0000 
0.0385 0.7547 0.0000 
0.0378 0.7278 0.0000 
0.0372 0.7014 0.0000 
0.0366 0.6753 0.0000 
0.0359 0.6497 0.0000 
0.0352 0.6246 0.0000 
0.0345 0.5999 0.0000 
0.0339 0.5757 0.0000 
0.0332 0.5519 0.0000 
0.0324 0.5286 0.0000 
0.0317 0.5058 0.0000 
0.0310 0.4835 0.0000 
0.0302 0.4616 0.0000 
0.0295 0.4403 0.0000 
0.0287 0.4195 0.0000 
0.0280 0.3991 0.0000 
0.0272 0.3793 0.0000 
0.0264 0.3600 0.0000 
0.0257 0.3413 0.0000 
0.0249 0.3230 0.0000 
0.0241 0.3053 0.0000 
0.0233 0.2881 0.0000 
0.0225 0.2714 0.0000 
0.0218 0.2553 0.0000 
0.0210 0.2396 0.0000 
0.0202 0.2245 0.0000 
0.0194 0.2100 0.0000 
0.0186 0.1959 0.0000 
0.0179 0.1824 0.0000 
0.0171 0.1694 0.0000 
0.0163 0.1568 0.0000 
0.0156 0.1448 0.0000 
0.0148 0.1333 0.0000 
0.0141 0.1223 0.0000 
0.0134 0.1118 0.0000 
0.0127 0.1018 0.0000 
0.0120 0.0923 0.0000 
0.0113 0.0832 0.0000 
0.0106 0.0745 0.0000 
0.0099 0.0664 0.0000 
0.0093 0.0586 0.0000 
0.0087 0.0513 0.0000 
0.0080 0.0444 0.0000 
0.0074 0.0380 0.0000 
0.0068 0.0319 0.0000 
0.0063 0.0262 0.0000 
0.0057 0.0209 0.0000 
0.0052 0.0159 0.0000 
0.0047 0.0113 0.0000 
0.0042 0.0070 0.0000 
0.0037 0.0031 0.0000 
0.0033 -0.0006 0.0000 
0.0028 -0.0039 0.0000 
0.0024 -0.0070 0.0000 
0.0020 -0.0097 0.0000 
0.0016 -0.0123 0.0000 
0.0013 -0.0145 0.0000 
0.0009 -0.0166 0.0000 
0.0006 -0.0184 0.0000 
0.0003 -0.0200 0.0000 
-0.0000 -0.0214 -0.0000 
-0.0003 -0.0226 -0.0000 
-0.0006 -0.0237 -0.0000 
-0.0008 -0.0246 -0.0000 
-0.0010 -0.0253 -0.0000 
-0.0012 -0.0259 -0.0000 
-0.0014 -0.0263 -0.0000 
-0.0016 -0.0266 -0.0000 
-0.0018 -0.0268 -0.0000 
-0.0020 -0.0269 -0.0000 
-0.0021 -0.0269 -0.0000 
-0.0022 -0.0268 -0.0000 
-0.0024 -0.0266 -0.0000 
-0.0025 -0.0263 -0.0000 
-0.0026 -0.0260 -0.0000 
-0.0027 -0.0256 -0.0000 
-0.0028 -0.0251 -0.0000 
-0.0028 -0.0246 -0.0000 
-0.0029 -0.0241 -0.0000 
-0.0030 -0.0235 -0.0000 
-0.0030 -0.0228 -0.0000 
-0.0031 -0.0221 -0.0000 
-0.0031 -0.0214 -0.0000 
-0.0032 -0.0207 -0.0000 
-0.0032 -0.0200 -0.0000 
-0.0032 -0.0192 -0.0000 
-0.0033 -0.0184 -0.0000 
-0.0033 -0.0176 -0.0000 
-0.0033 -0.0168 -0.0000 
-0.0033 -0.0160 -0.0000 
-0.0033 -0.0151 -0.0000 
-0.0033 -0.0143 -0.0000 
-0.0033 -0.0135 -0.0000 
-0.0033 -0.0126 -0.0000 
-0.0033 -0.0118 -0.0000 
-0.0033 -0.0109 -0.0000 
-0.0034 -0.0101 -0.0000 
-0.0034 -0.0092 -0.0000 
-0.0034 -0.0084 -0.0000 
-0.0034 -0.0075 -0.0000 
-0.0033 -0.0067 -0.0000 
-0.0033 -0.0059 -0.0000 
-0.0033 -0.0050 -0.0000 
-0.0033 -0.0042 -0.0000 
-0.0033 -0.0033 -0.0000 
-0.0033 -0.0025 -0.0000 
-0.0033 -0.0017 -0.0000 
-0.0033 -0.0008 -0.0000 
-0.0033 0.0000 -0.0000 
0.0875 2.1360 0.0000 
0.0873 2.0998 0.0000 
0.0872 2.0640 0.0000 
0.0871 2.0283 0.0000 
0.0870 1.9926 0.0000 
0.0869 1.9569 0.0000 
0.0868 1.9213 0.0000 
0.0866 1.8857 0.0000 
0.0864 1.8503 0.0000 
0.0862 1.8148 0.0000 
0.0860 1.7795 0.0000 
0.0857 1.7443 0.0000 
0.0855 1.7092 0.0000 
0.0851 1.6742 0.0000 
0.0848 1.6393 0.0000 
0.0845 1.6046 0.0000 
0.0841 1.5700 0.0000 
0.0837 1.5356 0.0000 
0.0832 1.5013 0.0000 
0.0828 1.4672 0.0000 
0.0823 1.4334 0.0000 
0.0818 1.3997 0.0000 
0.0813 1.3662 0.0000 
0.0807 1.3329 0.0000 
0.0801 1.2999 0.0000 
0.0795 1.2671 0.0000 
0.0789 1.2345 0.0000 
0.0782 1.2022 0.0000 
0.0776 1.1702 0.0000 
0.0769 1.1384 0.0000 
0.0761 1.1069 0.0000 
0.0754 1.0757 0.0000 
0.0746 1.0449 0.0000 
0.0738 1.0143 0.0000 
0.0730 0.9841 0.0000 
0.0721 0.9542 0.0000 
0.0713 0.9246 0.0000 
0.0704 0.8954 0.0000 
0.0694 0.8666 0.0000 
0.0685 0.8381 0.0000 
0.0675 0.8101 0.0000 
0.0665 0.7824 0.0000 
0.0655 0.7551 0.0000 
0.0645 0.7282 0.0000 
0.0634 0.7018 0.0000 
0.0623 0.6758 0.0000 
0.0612 0.6502 0.0000 
0.0601 0.6250 0.0000 
0.0590 0.6003 0.0000 
0.0578 0.5761 0.0000 
0.0567 0.5524 0.0000 
0.0555 0.5291 0.0000 
0.0543 0.5063 0.0000 
0.0530 0.4839 0.0000 
0.0518 0.4621 0.0000 
0.0506 0.4408 0.0000 
0.0493 0.4200 0.0000 
0.0480 0.3996 0.0000 
0.0467 0.3798 0.0000 
0.0455 0.3606 0.0000 
0.0442 0.3418 0.0000 
0.0429 0.3235 0.0000 
0.0416 0.3058 0.0000 
0.0403 0.2886 0.0000 
0.0389 0.2719 0.0000 
0.0376 0.2558 0.0000 
0.0363 0.2402 0.0000 
0.0350 0.2250 0.0000 
0.0337 0.2105 0.0000 
0.0324 0.1964 0.0000 
0.0312 0.1829 0.0000 
0.0299 0.1699 0.0000 
0.0286 0.1573 0.0000 
0.0274 0.1453 0.0000 
0.0261 0.1338 0.0000 
0.0249 0.1228 0.0000 
0.0237 0.1123 0.0000 
0.0225 0.1023 0.0000 
0.0213 0.0927 0.0000 
0.0202 0.0836 0.0000 
0.0190 0.0750 0.0000 
0.0179 0.0668 0.0000 
0.0168 0.0590 0.0000 
0.0158 0.0517 0.0000 
0.0148 0.0448 0.0000 
0.0137 0.0383 0.0000 
0.0128 0.0323 0.0000 
0.0118 0.0265 0.0000 
0.0109 0.0212 0.0000 
0.0100 0.0162 0.0000 