# vtk DataFile Version 2.0
VTK from Matlab
ASCII
DATASET UNSTRUCTURED_GRID
POINTS 6622 float
162.0000 19.0000 0.0000 
162.0000 0.0000 0.0000 
188.0000 0.0000 0.0000 
188.0000 19.0000 0.0000 
162.0000 100.0000 0.0000 
188.0000 100.0000 0.0000 
-162.0000 19.0000 -0.0000 
-188.0000 19.0000 -0.0000 
-188.0000 0.0000 -0.0000 
-162.0000 0.0000 -0.0000 
-162.0000 100.0000 -0.0000 
-188.0000 100.0000 -0.0000 
0.0000 19.0000 0.0000 
0.0000 0.0000 0.0000 
0.0000 100.0000 0.0000 
162.0000 14.2500 0.0000 
162.0000 9.5000 0.0000 
162.0000 4.7500 0.0000 
167.2000 0.0000 0.0000 
172.4000 0.0000 0.0000 
177.6000 0.0000 0.0000 
182.8000 0.0000 0.0000 
188.0000 4.7500 0.0000 
188.0000 9.5000 0.0000 
188.0000 14.2500 0.0000 
182.8000 19.0000 0.0000 
177.6000 19.0000 0.0000 
172.4000 19.0000 0.0000 
167.2000 19.0000 0.0000 
162.0000 95.9500 0.0000 
162.0000 91.9000 0.0000 
162.0000 87.8500 0.0000 
162.0000 83.8000 0.0000 
162.0000 79.7500 0.0000 
162.0000 75.7000 0.0000 
162.0000 71.6500 0.0000 
162.0000 67.6000 0.0000 
162.0000 63.5500 0.0000 
162.0000 59.5000 0.0000 
162.0000 55.4500 0.0000 
162.0000 51.4000 0.0000 
162.0000 47.3500 0.0000 
162.0000 43.3000 0.0000 
162.0000 39.2500 0.0000 
162.0000 35.2000 0.0000 
162.0000 31.1500 0.0000 
162.0000 27.1000 0.0000 
162.0000 23.0500 0.0000 
188.0000 23.0500 0.0000 
188.0000 27.1000 0.0000 
188.0000 31.1500 0.0000 
188.0000 35.2000 0.0000 
188.0000 39.2500 0.0000 
188.0000 43.3000 0.0000 
188.0000 47.3500 0.0000 
188.0000 51.4000 0.0000 
188.0000 55.4500 0.0000 
188.0000 59.5000 0.0000 
188.0000 63.5500 0.0000 
188.0000 67.6000 0.0000 
188.0000 71.6500 0.0000 
188.0000 75.7000 0.0000 
188.0000 79.7500 0.0000 
188.0000 83.8000 0.0000 
188.0000 87.8500 0.0000 
188.0000 91.9000 0.0000 
188.0000 95.9500 0.0000 
182.8000 100.0000 0.0000 
177.6000 100.0000 0.0000 
172.4000 100.0000 0.0000 
167.2000 100.0000 0.0000 
-167.2000 19.0000 -0.0000 
-172.4000 19.0000 -0.0000 
-177.6000 19.0000 -0.0000 
-182.8000 19.0000 -0.0000 
-188.0000 14.2500 -0.0000 
-188.0000 9.5000 -0.0000 
-188.0000 4.7500 -0.0000 
-182.8000 0.0000 -0.0000 
-177.6000 0.0000 -0.0000 
-172.4000 0.0000 -0.0000 
-167.2000 0.0000 -0.0000 
-162.0000 4.7500 -0.0000 
-162.0000 9.5000 -0.0000 
-162.0000 14.2500 -0.0000 
-162.0000 23.0500 -0.0000 
-162.0000 27.1000 -0.0000 
-162.0000 31.1500 -0.0000 
-162.0000 35.2000 -0.0000 
-162.0000 39.2500 -0.0000 
-162.0000 43.3000 -0.0000 
-162.0000 47.3500 -0.0000 
-162.0000 51.4000 -0.0000 
-162.0000 55.4500 -0.0000 
-162.0000 59.5000 -0.0000 
-162.0000 63.5500 -0.0000 
-162.0000 67.6000 -0.0000 
-162.0000 71.6500 -0.0000 
-162.0000 75.7000 -0.0000 
-162.0000 79.7500 -0.0000 
-162.0000 83.8000 -0.0000 
-162.0000 87.8500 -0.0000 
-162.0000 91.9000 -0.0000 
-162.0000 95.9500 -0.0000 
-167.2000 100.0000 -0.0000 
-172.4000 100.0000 -0.0000 
-177.6000 100.0000 -0.0000 
-182.8000 100.0000 -0.0000 
-188.0000 95.9500 -0.0000 
-188.0000 91.9000 -0.0000 
-188.0000 87.8500 -0.0000 
-188.0000 83.8000 -0.0000 
-188.0000 79.7500 -0.0000 
-188.0000 75.7000 -0.0000 
-188.0000 71.6500 -0.0000 
-188.0000 67.6000 -0.0000 
-188.0000 63.5500 -0.0000 
-188.0000 59.5000 -0.0000 
-188.0000 55.4500 -0.0000 
-188.0000 51.4000 -0.0000 
-188.0000 47.3500 -0.0000 
-188.0000 43.3000 -0.0000 
-188.0000 39.2500 -0.0000 
-188.0000 35.2000 -0.0000 
-188.0000 31.1500 -0.0000 
-188.0000 27.1000 -0.0000 
-188.0000 23.0500 -0.0000 
0.0000 18.0500 0.0000 
0.0000 17.1000 0.0000 
0.0000 16.1500 0.0000 
0.0000 15.2000 0.0000 
0.0000 14.2500 0.0000 
0.0000 13.3000 0.0000 
0.0000 12.3500 0.0000 
0.0000 11.4000 0.0000 
0.0000 10.4500 0.0000 
0.0000 9.5000 0.0000 
0.0000 8.5500 0.0000 
0.0000 7.6000 0.0000 
0.0000 6.6500 0.0000 
0.0000 5.7000 0.0000 
0.0000 4.7500 0.0000 
0.0000 3.8000 0.0000 
0.0000 2.8500 0.0000 
0.0000 1.9000 0.0000 
0.0000 0.9500 0.0000 
0.8221 0.0000 0.0000 
1.6837 0.0000 0.0000 
2.5868 0.0000 0.0000 
3.5334 0.0000 0.0000 
4.5255 0.0000 0.0000 
5.5653 0.0000 0.0000 
6.6551 0.0000 0.0000 
7.7974 0.0000 0.0000 
8.9947 0.0000 0.0000 
10.2495 0.0000 0.0000 
11.5648 0.0000 0.0000 
12.9433 0.0000 0.0000 
14.3881 0.0000 0.0000 
15.9024 0.0000 0.0000 
17.4896 0.0000 0.0000 
19.1532 0.0000 0.0000 
20.8968 0.0000 0.0000 
22.7243 0.0000 0.0000 
24.6397 0.0000 0.0000 
26.6473 0.0000 0.0000 
28.7515 0.0000 0.0000 
30.9569 0.0000 0.0000 
33.2684 0.0000 0.0000 
35.6912 0.0000 0.0000 
38.2305 0.0000 0.0000 
40.8919 0.0000 0.0000 
43.6815 0.0000 0.0000 
46.6052 0.0000 0.0000 
49.6696 0.0000 0.0000 
52.8815 0.0000 0.0000 
56.2479 0.0000 0.0000 
59.7762 0.0000 0.0000 
63.4743 0.0000 0.0000 
67.3504 0.0000 0.0000 
71.4129 0.0000 0.0000 
75.6709 0.0000 0.0000 
80.1337 0.0000 0.0000 
84.8113 0.0000 0.0000 
89.7139 0.0000 0.0000 
94.8524 0.0000 0.0000 
100.2382 0.0000 0.0000 
105.8830 0.0000 0.0000 
111.7995 0.0000 0.0000 
118.0006 0.0000 0.0000 
124.5000 0.0000 0.0000 
131.3122 0.0000 0.0000 
138.4521 0.0000 0.0000 
145.9356 0.0000 0.0000 
153.7791 0.0000 0.0000 
153.7791 19.0000 0.0000 
145.9356 19.0000 0.0000 
138.4521 19.0000 0.0000 
131.3122 19.0000 0.0000 
124.5000 19.0000 0.0000 
118.0006 19.0000 0.0000 
111.7995 19.0000 0.0000 
105.8830 19.0000 0.0000 
100.2382 19.0000 0.0000 
94.8524 19.0000 0.0000 
89.7139 19.0000 0.0000 
84.8113 19.0000 0.0000 
80.1337 19.0000 0.0000 
75.6709 19.0000 0.0000 
71.4129 19.0000 0.0000 
67.3504 19.0000 0.0000 
63.4743 19.0000 0.0000 
59.7762 19.0000 0.0000 
56.2479 19.0000 0.0000 
52.8815 19.0000 0.0000 
49.6696 19.0000 0.0000 
46.6052 19.0000 0.0000 
43.6815 19.0000 0.0000 
40.8919 19.0000 0.0000 
38.2305 19.0000 0.0000 
35.6912 19.0000 0.0000 
33.2684 19.0000 0.0000 
30.9569 19.0000 0.0000 
28.7515 19.0000 0.0000 
26.6473 19.0000 0.0000 
24.6397 19.0000 0.0000 
22.7243 19.0000 0.0000 
20.8968 19.0000 0.0000 
19.1532 19.0000 0.0000 
17.4896 19.0000 0.0000 
15.9024 19.0000 0.0000 
14.3881 19.0000 0.0000 
12.9433 19.0000 0.0000 
11.5648 19.0000 0.0000 
10.2495 19.0000 0.0000 
8.9947 19.0000 0.0000 
7.7974 19.0000 0.0000 
6.6551 19.0000 0.0000 
5.5653 19.0000 0.0000 
4.5255 19.0000 0.0000 
3.5334 19.0000 0.0000 
2.5868 19.0000 0.0000 
1.6837 19.0000 0.0000 
0.8221 19.0000 0.0000 
0.0000 98.9875 0.0000 
0.0000 97.9750 0.0000 
0.0000 96.9625 0.0000 
0.0000 95.9500 0.0000 
0.0000 94.9375 0.0000 
0.0000 93.9250 0.0000 
0.0000 92.9125 0.0000 
0.0000 91.9000 0.0000 
0.0000 90.8875 0.0000 
0.0000 89.8750 0.0000 
0.0000 88.8625 0.0000 
0.0000 87.8500 0.0000 
0.0000 86.8375 0.0000 
0.0000 85.8250 0.0000 
0.0000 84.8125 0.0000 
0.0000 83.8000 0.0000 
0.0000 82.7875 0.0000 
0.0000 81.7750 0.0000 
0.0000 80.7625 0.0000 
0.0000 79.7500 0.0000 
0.0000 78.7375 0.0000 
0.0000 77.7250 0.0000 
0.0000 76.7125 0.0000 
0.0000 75.7000 0.0000 
0.0000 74.6875 0.0000 
0.0000 73.6750 0.0000 
0.0000 72.6625 0.0000 
0.0000 71.6500 0.0000 
0.0000 70.6375 0.0000 
0.0000 69.6250 0.0000 
0.0000 68.6125 0.0000 
0.0000 67.6000 0.0000 
0.0000 66.5875 0.0000 
0.0000 65.5750 0.0000 
0.0000 64.5625 0.0000 
0.0000 63.5500 0.0000 
0.0000 62.5375 0.0000 
0.0000 61.5250 0.0000 
0.0000 60.5125 0.0000 
0.0000 59.5000 0.0000 
0.0000 58.4875 0.0000 
0.0000 57.4750 0.0000 
0.0000 56.4625 0.0000 
0.0000 55.4500 0.0000 
0.0000 54.4375 0.0000 
0.0000 53.4250 0.0000 
0.0000 52.4125 0.0000 
0.0000 51.4000 0.0000 
0.0000 50.3875 0.0000 
0.0000 49.3750 0.0000 
0.0000 48.3625 0.0000 
0.0000 47.3500 0.0000 
0.0000 46.3375 0.0000 
0.0000 45.3250 0.0000 
0.0000 44.3125 0.0000 
0.0000 43.3000 0.0000 
0.0000 42.2875 0.0000 
0.0000 41.2750 0.0000 
0.0000 40.2625 0.0000 
0.0000 39.2500 0.0000 
0.0000 38.2375 0.0000 
0.0000 37.2250 0.0000 
0.0000 36.2125 0.0000 
0.0000 35.2000 0.0000 
0.0000 34.1875 0.0000 
0.0000 33.1750 0.0000 
0.0000 32.1625 0.0000 
0.0000 31.1500 0.0000 
0.0000 30.1375 0.0000 
0.0000 29.1250 0.0000 
0.0000 28.1125 0.0000 
0.0000 27.1000 0.0000 
0.0000 26.0875 0.0000 
0.0000 25.0750 0.0000 
0.0000 24.0625 0.0000 
0.0000 23.0500 0.0000 
0.0000 22.0375 0.0000 
0.0000 21.0250 0.0000 
0.0000 20.0125 0.0000 
153.7791 100.0000 0.0000 
145.9356 100.0000 0.0000 
138.4521 100.0000 0.0000 
131.3122 100.0000 0.0000 
124.5000 100.0000 0.0000 
118.0006 100.0000 0.0000 
111.7995 100.0000 0.0000 
105.8830 100.0000 0.0000 
100.2382 100.0000 0.0000 
94.8524 100.0000 0.0000 
89.7139 100.0000 0.0000 
84.8113 100.0000 0.0000 
80.1337 100.0000 0.0000 
75.6709 100.0000 0.0000 
71.4129 100.0000 0.0000 
67.3504 100.0000 0.0000 
63.4743 100.0000 0.0000 
59.7762 100.0000 0.0000 
56.2479 100.0000 0.0000 
52.8815 100.0000 0.0000 
49.6696 100.0000 0.0000 
46.6052 100.0000 0.0000 
43.6815 100.0000 0.0000 
40.8919 100.0000 0.0000 
38.2305 100.0000 0.0000 
35.6912 100.0000 0.0000 
33.2684 100.0000 0.0000 
30.9569 100.0000 0.0000 
28.7515 100.0000 0.0000 
26.6473 100.0000 0.0000 
24.6397 100.0000 0.0000 
22.7243 100.0000 0.0000 
20.8968 100.0000 0.0000 
19.1532 100.0000 0.0000 
17.4896 100.0000 0.0000 
15.9024 100.0000 0.0000 
14.3881 100.0000 0.0000 
12.9433 100.0000 0.0000 
11.5648 100.0000 0.0000 
10.2495 100.0000 0.0000 
8.9947 100.0000 0.0000 
7.7974 100.0000 0.0000 
6.6551 100.0000 0.0000 
5.5653 100.0000 0.0000 
4.5255 100.0000 0.0000 
3.5334 100.0000 0.0000 
2.5868 100.0000 0.0000 
1.6837 100.0000 0.0000 
0.8221 100.0000 0.0000 
-153.7791 0.0000 -0.0000 
-145.9356 0.0000 -0.0000 
-138.4521 0.0000 -0.0000 
-131.3122 0.0000 -0.0000 
-124.5000 0.0000 -0.0000 
-118.0006 0.0000 -0.0000 
-111.7995 0.0000 -0.0000 
-105.8830 0.0000 -0.0000 
-100.2382 0.0000 -0.0000 
-94.8524 0.0000 -0.0000 
-89.7139 0.0000 -0.0000 
-84.8113 0.0000 -0.0000 
-80.1337 0.0000 -0.0000 
-75.6709 0.0000 -0.0000 
-71.4129 0.0000 -0.0000 
-67.3504 0.0000 -0.0000 
-63.4743 0.0000 -0.0000 
-59.7762 0.0000 -0.0000 
-56.2479 0.0000 -0.0000 
-52.8815 0.0000 -0.0000 
-49.6696 0.0000 -0.0000 
-46.6052 0.0000 -0.0000 
-43.6815 0.0000 -0.0000 
-40.8919 0.0000 -0.0000 
-38.2305 0.0000 -0.0000 
-35.6912 0.0000 -0.0000 
-33.2684 0.0000 -0.0000 
-30.9569 0.0000 -0.0000 
-28.7515 0.0000 -0.0000 
-26.6473 0.0000 -0.0000 
-24.6397 0.0000 -0.0000 
-22.7243 0.0000 -0.0000 
-20.8968 0.0000 -0.0000 
[...]
POINT_DATA 6622
VECTORS u float
-0.0400 -0.0016 -0.0000 
0.0000 0.0000 0.0000 
-0.0002 0.0527 -0.0000 
-0.0398 0.0527 -0.0000 
-0.2097 -0.0024 -0.0000 
-0.2097 0.0522 -0.0000 
-0.0779 -0.0017 -0.0000 
-0.0781 0.0527 -0.0000 
-0.1178 0.0527 -0.0000 
-0.1179 0.0000 -0.0000 
0.0920 -0.0024 0.0000 
0.0920 0.0523 0.0000 
-0.0576 -0.3351 -0.0000 
-0.0090 -0.3363 -0.0000 
-0.2124 -0.3500 -0.0000 
-0.0300 -0.0014 -0.0000 
-0.0200 -0.0012 -0.0000 
-0.0100 -0.0007 -0.0000 
-0.0002 0.0097 -0.0000 
-0.0002 0.0203 -0.0000 
-0.0002 0.0311 -0.0000 
-0.0002 0.0418 -0.0000 
-0.0100 0.0527 -0.0000 
-0.0199 0.0527 -0.0000 
-0.0298 0.0527 -0.0000 
-0.0398 0.0418 -0.0000 
-0.0398 0.0310 -0.0000 
-0.0398 0.0201 -0.0000 
-0.0399 0.0093 -0.0000 
-0.2012 -0.0024 -0.0000 
-0.1926 -0.0024 -0.0000 
-0.1841 -0.0024 -0.0000 
-0.1756 -0.0024 -0.0000 
-0.1672 -0.0024 -0.0000 
-0.1587 -0.0024 -0.0000 
-0.1502 -0.0024 -0.0000 
-0.1417 -0.0024 -0.0000 
-0.1333 -0.0024 -0.0000 
-0.1248 -0.0024 -0.0000 
-0.1163 -0.0023 -0.0000 
-0.1079 -0.0023 -0.0000 
-0.0994 -0.0023 -0.0000 
-0.0909 -0.0022 -0.0000 
-0.0824 -0.0021 -0.0000 
-0.0740 -0.0021 -0.0000 
-0.0655 -0.0020 -0.0000 
-0.0570 -0.0019 -0.0000 
-0.0485 -0.0018 -0.0000 
-0.0483 0.0527 -0.0000 
-0.0568 0.0526 -0.0000 
-0.0653 0.0526 -0.0000 
-0.0738 0.0526 -0.0000 
-0.0823 0.0525 -0.0000 
-0.0908 0.0525 -0.0000 
-0.0993 0.0524 -0.0000 
-0.1077 0.0524 -0.0000 
-0.1162 0.0524 -0.0000 
-0.1247 0.0523 -0.0000 
-0.1332 0.0523 -0.0000 
-0.1417 0.0523 -0.0000 
-0.1502 0.0523 -0.0000 
-0.1587 0.0523 -0.0000 
-0.1672 0.0522 -0.0000 
-0.1757 0.0522 -0.0000 
-0.1842 0.0522 -0.0000 
-0.1927 0.0522 -0.0000 
-0.2012 0.0522 -0.0000 
-0.2097 0.0413 -0.0000 
-0.2097 0.0304 -0.0000 
-0.2097 0.0195 -0.0000 
-0.2097 0.0085 -0.0000 
-0.0780 0.0093 -0.0000 
-0.0781 0.0201 -0.0000 
-0.0781 0.0310 -0.0000 
-0.0781 0.0418 -0.0000 
-0.0881 0.0527 -0.0000 
-0.0980 0.0527 -0.0000 
-0.1079 0.0527 -0.0000 
-0.1178 0.0419 -0.0000 
-0.1177 0.0311 -0.0000 
-0.1177 0.0203 -0.0000 
-0.1177 0.0097 -0.0000 
-0.1079 -0.0008 -0.0000 
-0.0979 -0.0012 -0.0000 
-0.0879 -0.0015 -0.0000 
-0.0694 -0.0018 -0.0000 
-0.0609 -0.0019 -0.0000 
-0.0524 -0.0020 -0.0000 
-0.0439 -0.0021 -0.0000 
-0.0354 -0.0022 -0.0000 
-0.0269 -0.0022 -0.0000 
-0.0184 -0.0023 -0.0000 
-0.0100 -0.0023 -0.0000 
-0.0015 -0.0023 -0.0000 
0.0070 -0.0024 0.0000 
0.0155 -0.0024 0.0000 
0.0240 -0.0024 0.0000 
0.0324 -0.0024 0.0000 
0.0409 -0.0024 0.0000 
0.0494 -0.0025 0.0000 
0.0579 -0.0025 0.0000 
0.0664 -0.0025 0.0000 
0.0749 -0.0025 0.0000 
0.0835 -0.0025 0.0000 
0.0920 0.0085 0.0000 
0.0920 0.0195 0.0000 
0.0920 0.0304 0.0000 
0.0920 0.0414 0.0000 
0.0835 0.0523 0.0000 
0.0750 0.0523 0.0000 
0.0664 0.0523 0.0000 
0.0579 0.0523 0.0000 
0.0494 0.0523 0.0000 
0.0409 0.0523 0.0000 
0.0324 0.0523 0.0000 
0.0239 0.0523 0.0000 
0.0154 0.0523 0.0000 
0.0069 0.0524 0.0000 
-0.0016 0.0524 -0.0000 
-0.0101 0.0524 -0.0000 
-0.0186 0.0525 -0.0000 
-0.0271 0.0525 -0.0000 
-0.0356 0.0526 -0.0000 
-0.0441 0.0526 -0.0000 
-0.0526 0.0527 -0.0000 
-0.0611 0.0527 -0.0000 
-0.0696 0.0527 -0.0000 
-0.0566 -0.3350 -0.0000 
-0.0499 -0.3364 -0.0000 
-0.0464 -0.3367 -0.0000 
-0.0433 -0.3367 -0.0000 
-0.0407 -0.3367 -0.0000 
-0.0382 -0.3367 -0.0000 
-0.0358 -0.3366 -0.0000 
-0.0335 -0.3366 -0.0000 
-0.0313 -0.3365 -0.0000 
-0.0292 -0.3365 -0.0000 
-0.0271 -0.3364 -0.0000 
-0.0250 -0.3364 -0.0000 
-0.0230 -0.3364 -0.0000 
-0.0210 -0.3363 -0.0000 
-0.0190 -0.3363 -0.0000 
-0.0170 -0.3363 -0.0000 
-0.0150 -0.3363 -0.0000 
-0.0130 -0.3363 -0.0000 
-0.0110 -0.3363 -0.0000 
-0.0090 -0.3345 -0.0000 
-0.0090 -0.3327 -0.0000 
-0.0091 -0.3308 -0.0000 
-0.0091 -0.3289 -0.0000 
-0.0091 -0.3268 -0.0000 
-0.0091 -0.3247 -0.0000 
-0.0091 -0.3224 -0.0000 
-0.0092 -0.3201 -0.0000 
-0.0092 -0.3177 -0.0000 
-0.0092 -0.3152 -0.0000 
-0.0092 -0.3126 -0.0000 
-0.0092 -0.3100 -0.0000 
-0.0091 -0.3072 -0.0000 
-0.0090 -0.3043 -0.0000 
-0.0089 -0.3012 -0.0000 
-0.0087 -0.2981 -0.0000 
-0.0086 -0.2947 -0.0000 
-0.0083 -0.2913 -0.0000 
-0.0081 -0.2876 -0.0000 
-0.0078 -0.2837 -0.0000 
-0.0075 -0.2796 -0.0000 
-0.0072 -0.2753 -0.0000 
-0.0069 -0.2708 -0.0000 
-0.0065 -0.2660 -0.0000 
-0.0062 -0.2610 -0.0000 
-0.0058 -0.2556 -0.0000 
-0.0054 -0.2500 -0.0000 
-0.0051 -0.2441 -0.0000 
-0.0047 -0.2379 -0.0000 
-0.0044 -0.2313 -0.0000 
-0.0040 -0.2244 -0.0000 
-0.0037 -0.2171 -0.0000 
-0.0034 -0.2095 -0.0000 
-0.0030 -0.2015 -0.0000 
-0.0028 -0.1930 -0.0000 
-0.0025 -0.1842 -0.0000 
-0.0022 -0.1749 -0.0000 
-0.0019 -0.1651 -0.0000 
-0.0017 -0.1548 -0.0000 
-0.0014 -0.1440 -0.0000 
-0.0012 -0.1327 -0.0000 
-0.0010 -0.1208 -0.0000 
-0.0008 -0.1083 -0.0000 
-0.0006 -0.0952 -0.0000 
-0.0004 -0.0815 -0.0000 
-0.0002 -0.0670 -0.0000 
-0.0001 -0.0518 -0.0000 
0.0001 -0.0358 0.0000 
0.0002 -0.0189 0.0000 
-0.0402 -0.0191 -0.0000 
-0.0403 -0.0359 -0.0000 
-0.0403 -0.0519 -0.0000 
-0.0404 -0.0671 -0.0000 
-0.0405 -0.0816 -0.0000 
-0.0406 -0.0954 -0.0000 
-0.0407 -0.1085 -0.0000 
-0.0408 -0.1210 -0.0000 
-0.0409 -0.1329 -0.0000 
-0.0410 -0.1442 -0.0000 
-0.0412 -0.1550 -0.0000 
-0.0413 -0.1653 -0.0000 
-0.0415 -0.1751 -0.0000 
-0.0416 -0.1845 -0.0000 
-0.0418 -0.1934 -0.0000 
-0.0419 -0.2018 -0.0000 
-0.0421 -0.2099 -0.0000 
-0.0422 -0.2176 -0.0000 
-0.0424 -0.2249 -0.0000 
-0.0425 -0.2318 -0.0000 
-0.0427 -0.2384 -0.0000 
-0.0429 -0.2447 -0.0000 
-0.0431 -0.2507 -0.0000 
-0.0432 -0.2564 -0.0000 
-0.0434 -0.2617 -0.0000 
-0.0436 -0.2669 -0.0000 
-0.0438 -0.2717 -0.0000 
-0.0440 -0.2764 -0.0000 
-0.0443 -0.2807 -0.0000 
-0.0445 -0.2849 -0.0000 
-0.0448 -0.2889 -0.0000 
-0.0450 -0.2926 -0.0000 
-0.0453 -0.2962 -0.0000 
-0.0457 -0.2996 -0.0000 
-0.0460 -0.3028 -0.0000 
-0.0464 -0.3059 -0.0000 
-0.0468 -0.3088 -0.0000 
-0.0472 -0.3115 -0.0000 
-0.0476 -0.3141 -0.0000 
-0.0481 -0.3166 -0.0000 
-0.0486 -0.3190 -0.0000 
-0.0492 -0.3212 -0.0000 
-0.0499 -0.3233 -0.0000 
-0.0505 -0.3253 -0.0000 
-0.0513 -0.3272 -0.0000 
-0.0522 -0.3289 -0.0000 
-0.0532 -0.3307 -0.0000 
-0.0544 -0.3323 -0.0000 
-0.0559 -0.3338 -0.0000 
-0.2075 -0.3474 -0.0000 
-0.2045 -0.3461 -0.0000 
-0.2019 -0.3452 -0.0000 
-0.1995 -0.3446 -0.0000 
-0.1971 -0.3441 -0.0000 
-0.1948 -0.3437 -0.0000 
-0.1925 -0.3434 -0.0000 
-0.1902 -0.3431 -0.0000 
-0.1880 -0.3429 -0.0000 
-0.1858 -0.3427 -0.0000 
-0.1836 -0.3425 -0.0000 
-0.1814 -0.3423 -0.0000 
-0.1792 -0.3421 -0.0000 
-0.1770 -0.3420 -0.0000 
-0.1748 -0.3418 -0.0000 
-0.1727 -0.3417 -0.0000 
-0.1705 -0.3416 -0.0000 
-0.1683 -0.3415 -0.0000 
-0.1661 -0.3414 -0.0000 
-0.1640 -0.3413 -0.0000 
-0.1618 -0.3412 -0.0000 
-0.1596 -0.3411 -0.0000 
-0.1574 -0.3410 -0.0000 
-0.1552 -0.3409 -0.0000 
-0.1530 -0.3408 -0.0000 
-0.1508 -0.3407 -0.0000 
-0.1486 -0.3406 -0.0000 
-0.1464 -0.3406 -0.0000 
-0.1442 -0.3405 -0.0000 
-0.1419 -0.3404 -0.0000 
-0.1397 -0.3403 -0.0000 
-0.1375 -0.3402 -0.0000 
-0.1353 -0.3401 -0.0000 
-0.1331 -0.3400 -0.0000 
-0.1308 -0.3399 -0.0000 
-0.1286 -0.3398 -0.0000 
-0.1264 -0.3397 -0.0000 
-0.1242 -0.3396 -0.0000 
-0.1220 -0.3395 -0.0000 
-0.1198 -0.3394 -0.0000 
-0.1176 -0.3393 -0.0000 
-0.1155 -0.3391 -0.0000 
-0.1133 -0.3390 -0.0000 
-0.1111 -0.3389 -0.0000 
-0.1090 -0.3388 -0.0000 
-0.1068 -0.3386 -0.0000 
-0.1047 -0.3385 -0.0000 
-0.1026 -0.3383 -0.0000 
-0.1005 -0.3382 -0.0000 
-0.0984 -0.3380 -0.0000 
-0.0963 -0.3379 -0.0000 
-0.0943 -0.3377 -0.0000 
-0.0922 -0.3376 -0.0000 
-0.0902 -0.3374 -0.0000 
-0.0882 -0.3372 -0.0000 
-0.0862 -0.3371 -0.0000 
-0.0843 -0.3369 -0.0000 
-0.0823 -0.3367 -0.0000 
-0.0804 -0.3365 -0.0000 
-0.0785 -0.3363 -0.0000 
-0.0767 -0.3362 -0.0000 
-0.0749 -0.3360 -0.0000 
-0.0731 -0.3358 -0.0000 
-0.0713 -0.3356 -0.0000 
-0.0696 -0.3354 -0.0000 
-0.0680 -0.3351 -0.0000 
-0.0664 -0.3349 -0.0000 
-0.0649 -0.3347 -0.0000 
-0.0634 -0.3345 -0.0000 
-0.0621 -0.3343 -0.0000 
-0.0609 -0.3341 -0.0000 
-0.0598 -0.3339 -0.0000 
-0.0590 -0.3337 -0.0000 
-0.0588 -0.3336 -0.0000 
-0.0581 -0.3336 -0.0000 
-0.0573 -0.3336 -0.0000 
-0.0565 -0.3337 -0.0000 
-0.0558 -0.3338 -0.0000 
-0.0555 -0.3339 -0.0000 
-0.2097 -0.0198 -0.0000 
-0.2096 -0.0363 -0.0000 
-0.2095 -0.0521 -0.0000 
-0.2094 -0.0671 -0.0000 
-0.2093 -0.0815 -0.0000 
-0.2091 -0.0952 -0.0000 
-0.2090 -0.1082 -0.0000 
-0.2088 -0.1206 -0.0000 
-0.2086 -0.1324 -0.0000 
-0.2084 -0.1437 -0.0000 
-0.2083 -0.1544 -0.0000 
-0.2081 -0.1645 -0.0000 
-0.2079 -0.1742 -0.0000 
-0.2077 -0.1835 -0.0000 
-0.2076 -0.1923 -0.0000 
-0.2074 -0.2006 -0.0000 
-0.2073 -0.2086 -0.0000 
-0.2072 -0.2162 -0.0000 
-0.2071 -0.2234 -0.0000 
-0.2070 -0.2303 -0.0000 
-0.2069 -0.2369 -0.0000 
-0.2069 -0.2432 -0.0000 
-0.2069 -0.2491 -0.0000 
-0.2069 -0.2549 -0.0000 
-0.2069 -0.2603 -0.0000 
-0.2069 -0.2655 -0.0000 
-0.2069 -0.2705 -0.0000 
-0.2070 -0.2753 -0.0000 
-0.2071 -0.2799 -0.0000 
-0.2072 -0.2843 -0.0000 
-0.2072 -0.2885 -0.0000 
-0.2073 -0.2925 -0.0000 
-0.2075 -0.2964 -0.0000 
-0.2076 -0.3001 -0.0000 
-0.2077 -0.3037 -0.0000 
-0.2078 -0.3071 -0.0000 
-0.2080 -0.3104 -0.0000 
-0.2081 -0.3135 -0.0000 
-0.2083 -0.3166 -0.0000 
-0.2085 -0.3195 -0.0000 
-0.2087 -0.3224 -0.0000 
-0.2089 -0.3251 -0.0000 
-0.2091 -0.3278 -0.0000 
-0.2093 -0.3304 -0.0000 
-0.2096 -0.3330 -0.0000 
-0.2100 -0.3355 -0.0000 
-0.2104 -0.3382 -0.0000 
-0.2109 -0.3409 -0.0000 
-0.2117 -0.3441 -0.0000 
-0.1182 -0.0189 -0.0000 
-0.1180 -0.0358 -0.0000 
-0.1179 -0.0519 -0.0000 
-0.1177 -0.0671 -0.0000 
-0.1175 -0.0816 -0.0000 
-0.1173 -0.0953 -0.0000 
-0.1172 -0.1085 -0.0000 
-0.1169 -0.1210 -0.0000 
-0.1167 -0.1329 -0.0000 
-0.1165 -0.1442 -0.0000 
-0.1163 -0.1550 -0.0000 
-0.1160 -0.1653 -0.0000 
-0.1158 -0.1751 -0.0000 
-0.1155 -0.1844 -0.0000 
-0.1152 -0.1933 -0.0000 
-0.1149 -0.2017 -0.0000 
-0.1146 -0.2098 -0.0000 
-0.1143 -0.2174 -0.0000 
-0.1140 -0.2247 -0.0000 
-0.1136 -0.2316 -0.0000 
-0.1133 -0.2382 -0.0000 
-0.1129 -0.2444 -0.0000 
-0.1126 -0.2503 -0.0000 
-0.1122 -0.2560 -0.0000 
-0.1119 -0.2613 -0.0000 
-0.1115 -0.2664 -0.0000 
-0.1112 -0.2711 -0.0000 
-0.1109 -0.2757 -0.0000 
-0.1106 -0.2800 -0.0000 
-0.1103 -0.2841 -0.0000 
-0.1101 -0.2880 -0.0000 
-0.1098 -0.2917 -0.0000 
-0.1097 -0.2952 -0.0000 
-0.1095 -0.2986 -0.0000 
-0.1094 -0.3018 -0.0000 
-0.1093 -0.3049 -0.0000 
-0.1093 -0.3078 -0.0000 
-0.1092 -0.3107 -0.0000 
-0.1092 -0.3134 -0.0000 
-0.1093 -0.3160 -0.0000 
-0.1093 -0.3186 -0.0000 
-0.1093 -0.3211 -0.0000 
-0.1094 -0.3234 -0.0000 
-0.1094 -0.3257 -0.0000 
-0.1094 -0.3279 -0.0000 
-0.1094 -0.3300 -0.0000 
-0.1095 -0.3321 -0.0000 
-0.1095 -0.3340 -0.0000 
-0.1095 -0.3358 -0.0000 
-0.0605 -0.3348 -0.0000 
-0.0623 -0.3333 -0.0000 
-0.0638 -0.3316 -0.0000 
-0.0650 -0.3298 -0.0000 
-0.0660 -0.3280 -0.0000 
-0.0668 -0.3260 -0.0000 
-0.0676 -0.3240 -0.0000 
-0.0683 -0.3219 -0.0000 
-0.0689 -0.3196 -0.0000 
-0.0695 -0.3172 -0.0000 
-0.0700 -0.3147 -0.0000 
-0.0705 -0.3121 -0.0000 
-0.0710 -0.3093 -0.0000 
-0.0714 -0.3064 -0.0000 
-0.0718 -0.3033 -0.0000 
-0.0721 -0.3001 -0.0000 
-0.0725 -0.2967 -0.0000 
-0.0728 -0.2931 -0.0000 
-0.0731 -0.2893 -0.0000 
-0.0733 -0.2853 -0.0000 
-0.0736 -0.2811 -0.0000 
-0.0738 -0.2767 -0.0000 
-0.0740 -0.2721 -0.0000 
-0.0743 -0.2672 -0.0000 
-0.0745 -0.2621 -0.0000 
-0.0746 -0.2567 -0.0000 
-0.0748 -0.2510 -0.0000 
-0.0750 -0.2450 -0.0000 
-0.0752 -0.2387 -0.0000 
-0.0753 -0.2321 -0.0000 
-0.0755 -0.2251 -0.0000 
-0.0757 -0.2178 -0.0000 
-0.0758 -0.2101 -0.0000 
-0.0760 -0.2021 -0.0000 
-0.0761 -0.1936 -0.0000 
-0.0763 -0.1847 -0.0000 
-0.0764 -0.1753 -0.0000 
-0.0766 -0.1655 -0.0000 
-0.0767 -0.1552 -0.0000 
-0.0769 -0.1444 -0.0000 
-0.0770 -0.1331 -0.0000 
-0.0771 -0.1211 -0.0000 
-0.0772 -0.1086 -0.0000 
-0.0773 -0.0955 -0.0000 
-0.0774 -0.0817 -0.0000 
-0.0775 -0.0672 -0.0000 
-0.0776 -0.0520 -0.0000 
-0.0776 -0.0360 -0.0000 
-0.0777 -0.0192 -0.0000 
0.0937 -0.3443 0.0000 
0.0931 -0.3411 0.0000 
0.0925 -0.3384 0.0000 
0.0921 -0.3358 0.0000 
0.0918 -0.3332 0.0000 
0.0915 -0.3307 0.0000 
0.0913 -0.3281 0.0000 
0.0911 -0.3254 0.0000 
0.0909 -0.3227 0.0000 
0.0907 -0.3198 0.0000 
0.0905 -0.3169 0.0000 
0.0904 -0.3138 0.0000 
0.0902 -0.3107 0.0000 
0.0901 -0.3074 0.0000 
0.0899 -0.3040 0.0000 
0.0898 -0.3004 0.0000 
0.0897 -0.2967 0.0000 
0.0896 -0.2929 0.0000 
0.0895 -0.2888 0.0000 
0.0894 -0.2846 0.0000 
0.0893 -0.2802 0.0000 
0.0893 -0.2757 0.0000 
0.0892 -0.2709 0.0000 
0.0892 -0.2659 0.0000 
0.0891 -0.2607 0.0000 
0.0891 -0.2552 0.0000 
0.0891 -0.2495 0.0000 
0.0892 -0.2435 0.0000 
0.0892 -0.2372 0.0000 
0.0893 -0.2306 0.0000 
0.0894 -0.2237 0.0000 
0.0895 -0.2165 0.0000 
0.0896 -0.2089 0.0000 
0.0897 -0.2009 0.0000 
0.0899 -0.1925 0.0000 
0.0900 -0.1837 0.0000 
0.0902 -0.1745 0.0000 
0.0904 -0.1648 0.0000 
0.0906 -0.1546 0.0000 
0.0908 -0.1438 0.0000 
0.0909 -0.1326 0.0000 
0.0911 -0.1208 0.0000 
0.0913 -0.1083 0.0000 
0.0915 -0.0953 0.0000 
0.0916 -0.0816 0.0000 
0.0917 -0.0672 0.0000 
0.0918 -0.0522 0.0000 
0.0919 -0.0363 0.0000 
0.0920 -0.0198 0.0000 
-0.0299 0.0094 -0.0000 
-0.0199 0.0096 -0.0000 
-0.0099 0.0098 -0.0000 
-0.0298 0.0202 -0.0000 
-0.0199 0.0203 -0.0000 
-0.0100 0.0203 -0.0000 
-0.0298 0.0310 -0.0000 
-0.0199 0.0310 -0.0000 
-0.0100 0.0311 -0.0000 
-0.0298 0.0418 -0.0000 
-0.0199 0.0418 -0.0000 
-0.0100 0.0418 -0.0000 
-0.2012 0.0085 -0.0000 
-0.1927 0.0085 -0.0000 
-0.1842 0.0085 -0.0000 
-0.1757 0.0085 -0.0000 
-0.1672 0.0085 -0.0000 
-0.1587 0.0085 -0.0000 
-0.1502 0.0085 -0.0000 
-0.1417 0.0086 -0.0000 
-0.1332 0.0086 -0.0000 
-0.1248 0.0086 -0.0000 
-0.1163 0.0086 -0.0000 
-0.1078 0.0087 -0.0000 
-0.0994 0.0087 -0.0000 
-0.0909 0.0088 -0.0000 
-0.0824 0.0088 -0.0000 
-0.0739 0.0089 -0.0000 
-0.0654 0.0090 -0.0000 
-0.0569 0.0091 -0.0000 
-0.0484 0.0092 -0.0000 
-0.2012 0.0195 -0.0000 
-0.1927 0.0195 -0.0000 
-0.1842 0.0195 -0.0000 
-0.1757 0.0195 -0.0000 
-0.1672 0.0195 -0.0000 
-0.1587 0.0195 -0.0000 
-0.1502 0.0195 -0.0000 
-0.1417 0.0195 -0.0000 
-0.1332 0.0195 -0.0000 
-0.1248 0.0196 -0.0000 
-0.1163 0.0196 -0.0000 
-0.1078 0.0196 -0.0000 
-0.0993 0.0197 -0.0000 
-0.0908 0.0197 -0.0000 
-0.0824 0.0198 -0.0000 
-0.0739 0.0198 -0.0000 
-0.0654 0.0199 -0.0000 
-0.0569 0.0200 -0.0000 
-0.0483 0.0200 -0.0000 
-0.2012 0.0304 -0.0000 
-0.1927 0.0304 -0.0000 
-0.1842 0.0304 -0.0000 
-0.1757 0.0304 -0.0000 
-0.1672 0.0304 -0.0000 
-0.1587 0.0304 -0.0000 
-0.1502 0.0304 -0.0000 
-0.1417 0.0304 -0.0000 
-0.1332 0.0305 -0.0000 
-0.1247 0.0305 -0.0000 
-0.1163 0.0305 -0.0000 
-0.1078 0.0306 -0.0000 
-0.0993 0.0306 -0.0000 
-0.0908 0.0306 -0.0000 
-0.0823 0.0307 -0.0000 
-0.0738 0.0307 -0.0000 
-0.0653 0.0308 -0.0000 
-0.0568 0.0309 -0.0000 
-0.0483 0.0309 -0.0000 
-0.2012 0.0413 -0.0000 
-0.1927 0.0413 -0.0000 
-0.1842 0.0413 -0.0000 
-0.1757 0.0413 -0.0000 
-0.1672 0.0413 -0.0000 
-0.1587 0.0413 -0.0000 
-0.1502 0.0414 -0.0000 
-0.1417 0.0414 -0.0000 
-0.1332 0.0414 -0.0000 
-0.1247 0.0414 -0.0000 
-0.1163 0.0414 -0.0000 
-0.1078 0.0415 -0.0000 
-0.0993 0.0415 -0.0000 
-0.0908 0.0416 -0.0000 
-0.0823 0.0416 -0.0000 
-0.0738 0.0417 -0.0000 
-0.0653 0.0417 -0.0000 
-0.0568 0.0417 -0.0000 
-0.0483 0.0418 -0.0000 
-0.0880 0.0094 -0.0000 
-0.0881 0.0202 -0.0000 
-0.0881 0.0310 -0.0000 
-0.0881 0.0419 -0.0000 
-0.0980 0.0096 -0.0000 
-0.0980 0.0203 -0.0000 
-0.0980 0.0311 -0.0000 
-0.0980 0.0419 -0.0000 
-0.1080 0.0098 -0.0000 
-0.1079 0.0203 -0.0000 
-0.1079 0.0311 -0.0000 
-0.1079 0.0419 -0.0000 
-0.0695 0.0092 -0.0000 
-0.0610 0.0091 -0.0000 
-0.0524 0.0090 -0.0000 
-0.0439 0.0089 -0.0000 
-0.0354 0.0088 -0.0000 
-0.0270 0.0088 -0.0000 
-0.0185 0.0087 -0.0000 
-0.0100 0.0087 -0.0000 
-0.0015 0.0086 -0.0000 
0.0070 0.0086 0.0000 
0.0155 0.0086 0.0000 
0.0239 0.0086 0.0000 
0.0324 0.0085 0.0000 
0.0409 0.0085 0.0000 
0.0494 0.0085 0.0000 
0.0579 0.0085 0.0000 
0.0664 0.0085 0.0000 
0.0750 0.0085 0.0000 
0.0835 0.0085 0.0000 
-0.0695 0.0201 -0.0000 
-0.0610 0.0200 -0.0000 
-0.0525 0.0199 -0.0000 
-0.0440 0.0198 -0.0000 
-0.0355 0.0198 -0.0000 
-0.0270 0.0197 -0.0000 
-0.0185 0.0197 -0.0000 
-0.0100 0.0196 -0.0000 
-0.0015 0.0196 -0.0000 
0.0070 0.0196 0.0000 
0.0155 0.0195 0.0000 
0.0239 0.0195 0.0000 
0.0324 0.0195 0.0000 
0.0409 0.0195 0.0000 
0.0494 0.0195 0.0000 
0.0579 0.0195 0.0000 
0.0664 0.0195 0.0000 
0.0750 0.0195 0.0000 
0.0835 0.0195 0.0000 
-0.0696 0.0309 -0.0000 
-0.0611 0.0309 -0.0000 
-0.0525 0.0308 -0.0000 
-0.0440 0.0308 -0.0000 
-0.0355 0.0307 -0.0000 
-0.0270 0.0307 -0.0000 
-0.0185 0.0306 -0.0000 
-0.0100 0.0306 -0.0000 
-0.0015 0.0305 -0.0000 
0.0070 0.0305 0.0000 
0.0154 0.0305 0.0000 
0.0239 0.0305 0.0000 
0.0324 0.0305 0.0000 
0.0409 0.0304 0.0000 
0.0494 0.0304 0.0000 
0.0579 0.0304 0.0000 
0.0664 0.0304 0.0000 
0.0750 0.0304 0.0000 
0.0835 0.0304 0.0000 
-0.0696 0.0418 -0.0000 
-0.0611 0.0418 -0.0000 
-0.0526 0.0417 -0.0000 
-0.0441 0.0417 -0.0000 
-0.0356 0.0416 -0.0000 
-0.0270 0.0416 -0.0000 
-0.0185 0.0416 -0.0000 
-0.0100 0.0415 -0.0000 
-0.0015 0.0415 -0.0000 
0.0069 0.0415 0.0000 
0.0154 0.0414 0.0000 
0.0239 0.0414 0.0000 
0.0324 0.0414 0.0000 
0.0409 0.0414 0.0000 
0.0494 0.0414 0.0000 
0.0579 0.0414 0.0000 
0.0664 0.0414 0.0000 
0.0750 0.0414 0.0000 
0.0835 0.0414 0.0000 
-0.0284 -0.3127 -0.0000 
-0.0256 -0.2923 -0.0000 
-0.0237 -0.2687 -0.0000 
-0.0249 -0.2480 -0.0000 
-0.0238 -0.2244 -0.0000 
-0.0230 -0.2028 -0.0000 
-0.0217 -0.1767 -0.0000 
-0.0228 -0.0998 -0.0000 
-0.0092 -0.0827 -0.0000 
-0.0103 -0.0356 -0.0000 
-0.0112 -0.3343 -0.0000 
-0.0542 -0.3334 -0.0000 
-0.0113 -0.3322 -0.0000 
-0.0525 -0.3317 -0.0000 
-0.0112 -0.3303 -0.0000 
-0.0513 -0.3301 -0.0000 
-0.0271 -0.3345 -0.0000 
-0.0292 -0.3345 -0.0000 
-0.0382 -0.3344 -0.0000 
-0.0359 -0.3345 -0.0000 
-0.0336 -0.3345 -0.0000 
-0.0314 -0.3345 -0.0000 
-0.0250 -0.3345 -0.0000 
-0.0230 -0.3345 -0.0000 
-0.0210 -0.3346 -0.0000 
-0.0191 -0.3346 -0.0000 
-0.0172 -0.3345 -0.0000 
-0.0153 -0.3343 -0.0000 
-0.0434 -0.3342 -0.0000 
-0.0464 -0.3338 -0.0000 
-0.0501 -0.3333 -0.0000 
-0.0111 -0.3283 -0.0000 
-0.0503 -0.3284 -0.0000 
-0.0494 -0.3266 -0.0000 
-0.0111 -0.3263 -0.0000 
-0.0486 -0.3248 -0.0000 
-0.0112 -0.3241 -0.0000 
-0.0478 -0.3228 -0.0000 
-0.0113 -0.3219 -0.0000 
-0.0471 -0.3207 -0.0000 
-0.0114 -0.3196 -0.0000 
-0.0465 -0.3184 -0.0000 
-0.0115 -0.3172 -0.0000 
-0.0116 -0.3147 -0.0000 
-0.0459 -0.3161 -0.0000 
-0.0453 -0.3136 -0.0000 
-0.0116 -0.3121 -0.0000 
-0.0117 -0.3094 -0.0000 
-0.0447 -0.3110 -0.0000 
-0.0117 -0.3066 -0.0000 
-0.0442 -0.3082 -0.0000 
-0.0118 -0.3037 -0.0000 
-0.0437 -0.3053 -0.0000 
-0.0432 -0.3023 -0.0000 
-0.0118 -0.3007 -0.0000 
-0.0427 -0.2991 -0.0000 
-0.0117 -0.2975 -0.0000 
-0.0116 -0.2942 -0.0000 
-0.0422 -0.2957 -0.0000 
-0.0417 -0.2921 -0.0000 
-0.0115 -0.2909 -0.0000 
-0.0114 -0.2872 -0.0000 
-0.0413 -0.2883 -0.0000 
-0.0114 -0.2834 -0.0000 
-0.0408 -0.2843 -0.0000 
-0.0113 -0.2793 -0.0000 
-0.0403 -0.2801 -0.0000 
-0.0398 -0.2757 -0.0000 
-0.0111 -0.2751 -0.0000 
-0.0109 -0.2706 -0.0000 
-0.0392 -0.2709 -0.0000 
-0.0387 -0.2660 -0.0000 
-0.0107 -0.2660 -0.0000 
-0.0384 -0.2608 -0.0000 
-0.0104 -0.2612 -0.0000 
-0.0100 -0.2562 -0.0000 
-0.0382 -0.2554 -0.0000 
-0.0099 -0.2507 -0.0000 
-0.0379 -0.2497 -0.0000 
-0.0101 -0.2450 -0.0000 
-0.0376 -0.2438 -0.0000 
-0.0371 -0.2376 -0.0000 
-0.0106 -0.2387 -0.0000 
-0.0111 -0.2320 -0.0000 
-0.0367 -0.2312 -0.0000 
-0.0363 -0.2244 -0.0000 
-0.0108 -0.2246 -0.0000 
-0.0104 -0.2171 -0.0000 
-0.0360 -0.2172 -0.0000 
-0.0358 -0.2097 -0.0000 
-0.0102 -0.2095 -0.0000 
-0.0355 -0.2019 -0.0000 
-0.0102 -0.2018 -0.0000 
-0.0117 -0.1929 -0.0000 
-0.0348 -0.1936 -0.0000 
-0.0336 -0.1848 -0.0000 
-0.0105 -0.1834 -0.0000 
-0.0487 -0.3298 -0.0000 
-0.0407 -0.3343 -0.0000 
-0.0250 -0.3326 -0.0000 
-0.0229 -0.3326 -0.0000 
-0.0434 -0.3318 -0.0000 
-0.0463 -0.3316 -0.0000 
-0.0271 -0.3325 -0.0000 
-0.0359 -0.3324 -0.0000 
-0.0336 -0.3324 -0.0000 
-0.0313 -0.3325 -0.0000 
-0.0292 -0.3325 -0.0000 
-0.0193 -0.3329 -0.0000 
-0.0175 -0.3328 -0.0000 
-0.0158 -0.3324 -0.0000 
-0.0211 -0.3327 -0.0000 
-0.0479 -0.3280 -0.0000 
-0.0130 -0.3277 -0.0000 
-0.0495 -0.3315 -0.0000 
-0.0133 -0.3342 -0.0000 
-0.0131 -0.3258 -0.0000 
-0.0471 -0.3263 -0.0000 
-0.0132 -0.3237 -0.0000 
-0.0464 -0.3244 -0.0000 
-0.0135 -0.3215 -0.0000 
-0.0457 -0.3224 -0.0000 
-0.0450 -0.3203 -0.0000 